default_name
  8348
  35.1260000   1.1190000  24.8700000  36.0041913   0.6922905  25.1284569
  34.8540000   0.8450000  23.9370000  34.4550000   0.8180000  25.5620000
  35.2480000   2.5800000  25.0710000  34.3230000   3.1520000  25.0050000
  35.6790000   2.7720000  26.0540000  36.2400000   3.1460000  24.0700000
  36.0920000   2.8350000  22.8540000  37.3280000   3.7800000  24.4600000
  37.4090000   3.9350000  25.4540000  38.3780000   4.2930000  23.5840000
  38.3450000   3.9000000  22.5680000  38.1710000   5.8380000  23.5750000
  37.1700000   6.0850000  23.2230000  38.2010000   6.2950000  24.5650000
  39.1800000   6.5840000  22.7130000  38.9890000   6.5320000  21.3350000
  38.0980000   6.0480000  20.9650000  40.0070000   7.1040000  20.5100000
  39.9850000   7.1460000  19.4310000  41.1350000   7.7280000  21.0760000
  42.1330000   8.3340000  20.3540000  41.8920000   8.3980000  19.4270000
  41.2890000   7.8250000  22.4840000  42.1000000   8.3970000  22.9100000
  40.3660000   7.2280000  23.2760000  40.4410000   7.2440000  24.3530000
  39.7970000   3.9190000  23.9980000  39.9270000   3.7000000  25.2200000
  40.7440000   3.9490000  23.1090000  40.4730000   4.2110000  22.1720000
  42.1090000   3.5280000  23.2730000  42.4360000   3.5940000  24.3100000
  42.3690000   2.0890000  22.7190000  41.8890000   1.3380000  23.3470000
  41.8660000   1.8420000  21.7840000  43.8660000   1.7290000  22.5960000
  44.2240000   0.9790000  21.7300000  44.6570000   2.2510000  23.4060000
  43.0520000   4.5430000  22.5420000  42.9890000   4.6400000  21.3260000
  43.8730000   5.3290000  23.2730000  44.0110000   5.3770000  24.7370000
  44.2870000   4.4110000  25.1590000  43.0670000   5.7880000  25.0950000
  45.1030000   6.4120000  24.9620000  46.0120000   5.8190000  25.0640000
  45.0190000   6.8570000  25.9530000  45.0260000   7.3000000  23.7160000
  45.9220000   7.9150000  23.6290000  44.2550000   8.0510000  23.8920000
  44.7300000   6.3000000  22.5590000  44.2460000   6.7550000  21.6950000
  46.0320000   5.6220000  22.0760000  46.7600000   6.2020000  21.3010000
  46.3760000   4.3510000  22.4280000  45.8110000   3.7230000  22.9810000
  47.6490000   3.7590000  21.9430000  48.4270000   4.5140000  22.0580000
  47.9690000   2.5240000  22.7910000  47.2740000   1.7120000  22.5790000
  48.9350000   2.1130000  22.4950000  47.9310000   2.6430000  24.2910000
  46.9510000   3.0280000  24.5740000  48.1080000   1.6490000  24.6990000
  48.9890000   3.6500000  24.8440000  48.9160000   4.0910000  26.0060000
  49.9310000   3.9550000  24.1030000  47.5820000   3.4000000  20.4310000
  48.3090000   3.9070000  19.5650000  46.5060000   2.5810000  20.0700000
  46.0250000   2.0790000  20.8030000  46.1200000   2.2470000  18.7150000
  46.9990000   1.9480000  18.1440000  45.1710000   0.9480000  18.6640000
  45.0300000   0.6310000  17.6310000  45.7250000  -0.2740000  19.4180000
  46.6250000  -0.6260000  18.9120000  44.9700000  -1.0590000  19.3770000
  46.0150000  -0.0150000  20.4360000  43.8680000   1.2170000  19.1740000
  43.9240000   1.1110000  20.1260000  45.3160000   3.3780000  18.0680000
  44.9880000   3.2440000  16.9070000  44.8820000   4.3640000  18.8480000
  44.9916963   4.3021025  19.8501151  44.1540000   5.4880000  18.3070000
  44.1380000   6.3440000  18.9830000  44.6890000   5.8960000  17.4490000
  42.6430000   5.0420000  17.8900000  42.0580000   5.8490000  17.1120000
  42.1430000   3.8630000  18.2590000  42.7060000   3.4320000  18.9790000
  40.8030000   3.3020000  17.8590000  40.4540000   3.9390000  17.0460000
  40.9690000   1.8810000  17.2320000  39.9830000   1.6920000  16.8090000
  42.0710000   1.7320000  16.2320000  42.0360000   2.5950000  15.5670000
  42.0320000   0.8320000  15.6190000  43.0300000   1.7350000  16.7490000
  41.3840000   0.9380000  18.2020000  42.2600000   1.2080000  18.4860000
  39.6800000   3.3280000  18.9720000  39.9050000   3.4090000  20.2020000
  38.4040000   3.3080000  18.5030000  38.2250000   3.3000000  17.5090000
  37.0710000   3.2710000  19.1170000  37.0280000   3.4650000  20.1880000
  36.1050000   4.3000000  18.4280000  35.8620000   3.8170000  17.4820000
  35.2060000   4.3620000  19.0420000  36.6020000   5.6660000  18.1830000
  37.4270000   6.0720000  17.1330000  37.6980000   5.3910000  16.3400000
  37.7250000   7.4010000  17.2540000  38.3890000   7.8810000  16.6630000
  37.1780000   7.9390000  18.3670000  37.2520000   9.1960000  18.8940000
  37.8140000   9.9580000  18.3740000  36.5540000   9.4240000  20.0830000
  36.6220000  10.3560000  20.6250000  35.8340000   8.4210000  20.6840000
  35.3050000   8.6790000  21.5890000  35.6820000   7.1490000  20.0990000
  35.0120000   6.3670000  20.4230000  36.4850000   6.8250000  18.9680000
  36.5150000   1.8880000  18.8450000  37.2130000   1.0750000  18.2320000
  35.2570000   1.4890000  19.2370000  34.7793752   2.1303769  19.8539357
  34.6120000   0.2760000  18.9010000  34.6740000   0.0230000  17.8420000
  35.0660000  -0.4910000  19.5280000  33.1430000   0.2920000  19.2890000
  32.8270000  -0.4540000  20.2720000  32.3630000   1.0640000  18.8350000
  22.9570000  39.8430000  24.8210000  29.7030000  24.6650000  20.4100000
  10.2590000  15.9080000   5.5710000   9.9240000  15.8270000   4.6770000
   9.5490000  15.5810000   6.1230000   7.9880000  43.1450000  22.0250000
   7.1080000  43.4730000  22.2120000   8.5410000  43.9270000  22.0350000
   6.6040000   4.9640000  25.4590000   5.8690000   4.5830000  24.9780000
   6.2540000   5.1430000  26.3310000   6.3710000  35.9800000   8.4050000
   5.7950000  35.3020000   8.0510000   6.5980000  36.5210000   7.6490000
   8.8200000  40.6950000   4.0070000   9.7150000  40.8520000   4.3060000
   8.2880000  41.3160000   4.5050000  32.2650000  17.0850000  19.7700000
  32.1540000  17.0540000  18.8200000  31.3750000  17.0270000  20.1170000
  21.5640000   1.3100000  12.3590000  21.1800000   0.6410000  11.7920000
  20.8450000   1.5860000  12.9260000  14.8450000   9.6020000   9.5200000
  14.0140000   9.8720000   9.1280000  14.6780000   8.7190000   9.8500000
  36.6390000  12.8490000  41.9480000  37.0140000  13.6360000  42.3440000
  35.9480000  12.5830000  42.5540000  11.0290000   4.8910000  15.5180000
  11.2770000   3.9820000  15.3460000  10.0720000   4.8830000  15.5100000
   2.0430000   4.9450000  28.0220000   2.2180000   5.8670000  28.2100000
   2.6880000   4.7100000  27.3550000  17.3330000  32.4880000  27.1910000
  16.6880000  31.8050000  27.0070000  17.1050000  33.2010000  26.5960000
  39.0100000  18.9420000  12.8480000  38.9550000  18.4670000  12.0190000
  39.7660000  19.5200000  12.7420000   1.0750000  34.8500000  17.6480000
   0.7650000  35.7530000  17.7150000   1.7950000  34.8900000  17.0190000
  32.1590000  24.8410000  25.3540000  31.8170000  23.9470000  25.3430000
  32.6500000  24.9200000  24.5360000  40.1420000  40.2850000  38.4920000
  39.5910000  40.0310000  37.7520000  41.0380000  40.1730000  38.1740000
  16.3140000  21.7130000  35.7540000  16.9030000  22.0700000  36.4190000
  16.8960000  21.4010000  35.0610000  36.2230000  16.4860000   4.5150000
  35.7370000  17.3100000   4.5320000  36.4720000  16.3730000   3.5980000
  19.4330000  43.0800000  25.2650000  19.4060000  42.2090000  24.8680000
  18.6540000  43.1140000  25.8200000  25.9340000  33.3790000  28.6560000
  25.7270000  32.5180000  28.2930000  26.5240000  33.7740000  28.0150000
  37.6890000  33.1590000   8.0980000  38.4520000  32.7160000   8.4670000
  36.9500000  32.8330000   8.6130000  30.0260000  23.2550000  25.9800000
  29.1400000  23.1010000  25.6520000  30.0880000  24.2060000  26.0660000
   6.4880000  38.3970000  35.6930000   6.5740000  38.3900000  34.7400000
   6.9540000  39.1860000  35.9690000  10.0430000  43.9050000  32.2950000
   9.3960000  43.5690000  31.6750000  10.5370000  43.1320000  32.5680000
   3.5750000  32.6190000  37.8430000   3.9420000  32.1740000  38.6070000
   4.2170000  33.2960000  37.6280000  17.2220000  14.1630000   5.0440000
  16.4320000  13.8780000   5.5040000  17.8200000  14.4340000   5.7410000
  21.6780000  16.4280000  16.2180000  22.2630000  15.6710000  16.2150000
  21.4790000  16.5810000  15.2940000  33.0380000   3.2220000  16.4940000
  32.3530000   3.5820000  15.9300000  32.7410000   3.4120000  17.3840000
   3.5320000   0.4390000  11.1190000   3.2510000   0.2410000  12.0120000
   4.4850000   0.3530000  11.1420000  44.1940000  29.7430000  30.5630000
  43.7040000  30.3040000  31.1640000  44.4990000  30.3360000  29.8770000
  36.8660000  15.3920000  39.9150000  37.0900000  15.9810000  39.1940000
  36.5980000  15.9740000  40.6260000  11.9160000  28.8420000   8.0780000
  12.3330000  29.7000000   8.1560000  12.0340000  28.6000000   7.1590000
  31.3150000  20.6120000  13.1330000  31.3160000  20.3460000  14.0530000
  30.7250000  19.9920000  12.7050000  36.4530000  25.9000000  35.9740000
  36.5460000  24.9920000  36.2640000  35.7230000  26.2430000  36.4900000
  24.1710000  37.2180000  20.4200000  23.9110000  37.0170000  19.5210000
  25.1250000  37.1450000  20.4150000  41.4540000  32.6430000  16.8330000
  42.2540000  33.1690000  16.8560000  41.0450000  32.7930000  17.6850000
   4.6130000   5.4190000  15.4350000   4.1580000   5.8150000  14.6920000
   4.2460000   4.5370000  15.4980000   0.3430000  25.5630000  19.9410000
   0.5780000  26.1940000  20.6210000  -0.4850000  25.8880000  19.5890000
  23.6620000   8.3250000  21.9020000  24.4710000   8.2010000  22.3990000
  23.5910000   7.5380000  21.3610000  42.4020000  39.3190000  20.2450000
  43.1540000  39.2160000  19.6610000  42.3860000  40.2530000  20.4520000
   1.3640000  13.4090000  13.8380000   1.8700000  14.2000000  14.0250000
   1.2990000  12.9620000  14.6820000  35.4060000   4.1390000  41.6960000
  36.1320000   3.5210000  41.6070000  34.9640000   4.1130000  40.8470000
  26.2490000   4.2370000  12.5470000  26.6880000   4.7120000  11.8410000
  26.7610000   3.4340000  12.6480000  25.3610000  31.0910000   4.9310000
  26.2440000  31.4300000   5.0790000  24.8680000  31.3600000   5.7050000
  37.0090000   2.1050000  40.6960000  37.8650000   1.6980000  40.8330000
  36.4140000   1.3690000  40.5520000   0.0480000  42.4420000  10.3170000
  -0.6620000  42.7710000  10.8680000   0.6150000  41.9600000  10.9180000
   1.6000000  42.2710000   0.8650000   0.7380000  42.3680000   1.2700000
   1.9960000  43.1390000   0.9330000   7.6070000  22.0640000  24.0310000
   6.9780000  22.4580000  23.4260000   7.3460000  21.1440000  24.0800000
   8.5030000  22.7220000  37.0040000   9.0480000  22.7970000  36.2200000
   7.9850000  23.5270000  37.0140000  25.3170000  41.9890000  16.4540000
  24.5290000  42.2900000  16.9080000  25.1890000  42.2630000  15.5460000
  29.5460000  42.3950000  12.4630000  29.3070000  42.1830000  13.3650000
  30.3090000  42.9680000  12.5450000  43.0800000  38.3380000  33.6290000
  42.9050000  38.5320000  32.7080000  43.2950000  39.1860000  34.0160000
  20.9660000  15.7040000  40.1250000  21.5310000  15.7080000  40.8980000
  20.3130000  16.3810000  40.3010000  36.8550000  41.9430000  30.4670000
  36.8110000  41.0480000  30.8030000  37.4820000  41.8990000  29.7460000
  14.4590000  24.8990000   3.5710000  14.1890000  24.6610000   2.6830000
  14.3250000  25.8450000   3.6170000  24.6200000  10.6730000  34.2720000
  25.4880000  10.2710000  34.2990000  24.3390000  10.7000000  35.1860000
   3.4430000  34.6550000   4.5660000   4.2870000  34.7820000   4.1320000
   2.8890000  35.3550000   4.2220000  43.4380000  31.0210000  21.6840000
  43.3840000  31.4080000  20.8100000  44.3620000  31.0960000  21.9230000
  20.4580000  21.2800000  39.2490000  21.0750000  20.5910000  39.4960000
  20.9300000  21.8030000  38.6020000   2.6730000   1.7860000  14.0930000
   2.4530000   2.5530000  14.6220000   3.4350000   2.0600000  13.5810000
   8.6410000  31.6410000  21.0060000   8.3440000  31.8180000  21.8990000
   8.0280000  32.1220000  20.4500000  32.3730000  19.7140000  41.2680000
  32.9620000  19.6410000  40.5170000  32.3990000  18.8500000  41.6780000
  43.6140000   9.6320000  26.4910000  43.2330000   9.9980000  25.6920000
  42.9110000   9.1080000  26.8740000  32.9990000  11.4600000  14.5030000
  32.8180000  11.9550000  13.7040000  33.1400000  10.5620000  14.2010000
  41.9920000   7.5570000   9.0540000  42.3430000   7.9740000   9.8410000
  42.6620000   6.9220000   8.8000000   1.1850000  33.8940000   7.5530000
   1.3150000  33.8550000   8.5000000   0.9500000  34.8050000   7.3800000
  25.4680000  36.7440000  34.4390000  26.0340000  37.3940000  34.8570000
  25.6960000  35.9190000  34.8660000   8.2680000   4.8850000  16.2610000
   7.8900000   4.1670000  16.7680000   7.6040000   5.5740000  16.2900000
   6.2770000  28.5780000  11.7120000   5.9900000  28.4840000  10.8030000
   5.4650000  28.5830000  12.2190000  16.6060000  42.6370000  26.0410000
  15.8960000  42.9290000  25.4690000  16.3470000  42.9330000  26.9140000
  38.8210000  40.5870000  28.9190000  38.4720000  40.3490000  28.0600000
  38.6390000  39.8260000  29.4710000   1.2850000  17.3430000   4.5700000
   1.4740000  16.4070000   4.6310000   1.8930000  17.6680000   3.9060000
  24.6340000   8.0710000  26.2260000  24.2040000   7.2610000  25.9510000
  23.9440000   8.5740000  26.6580000  10.1300000  29.2580000  36.6470000
   9.7020000  29.9230000  36.1080000  10.9940000  29.1470000  36.2490000
  31.9980000  27.5280000  37.1120000  32.2690000  28.0910000  36.3870000
  31.0880000  27.7730000  37.2780000   7.4270000  13.0060000  21.0140000
   7.4220000  12.6940000  21.9190000   7.4960000  12.2100000  20.4860000
  28.9560000  11.3320000   9.4000000  28.8700000  11.3780000  10.3530000
  28.0600000  11.4220000   9.0740000   1.2400000  15.4250000  16.6750000
   0.5560000  14.7790000  16.8530000   0.7830000  16.1450000  16.2400000
  41.8820000  27.0290000  14.5550000  41.2670000  27.2850000  13.8680000
  42.3400000  27.8380000  14.7820000  12.0850000  10.3120000  12.3920000
  11.1670000  10.5600000  12.2890000  12.4630000  11.0060000  12.9320000
   5.2790000  41.6000000  23.0810000   6.0130000  40.9990000  22.9490000
   5.1360000  41.6000000  24.0270000   9.3250000   4.3930000  36.8220000
   9.0500000   3.5530000  36.4540000  10.1800000   4.5590000  36.4250000
   0.5470000  25.8070000  12.4810000   0.7020000  25.4740000  13.3650000
   0.4250000  26.7490000  12.5970000  25.7960000  17.8530000  24.0530000
  24.8770000  17.8760000  23.7850000  25.9650000  18.7280000  24.4010000
  14.1880000  42.0140000  11.7480000  13.4640000  42.3090000  11.1950000
  14.6840000  41.4130000  11.1920000   8.4700000   6.1980000  12.0200000
   7.8060000   6.1970000  12.7090000   9.1070000   6.8540000  12.3020000
  37.8840000  44.0130000   0.5730000  38.5670000  43.9720000  -0.0970000
  37.6120000  43.1030000   0.6930000  16.2620000   4.6000000  12.3150000
  17.2010000   4.7870000  12.3420000  15.8460000   5.4340000  12.5310000
  11.8770000  43.7960000   0.0420000  12.1000000  42.8650000   0.0250000
  10.9490000  43.8150000   0.2770000  32.6540000  32.1620000  35.5870000
  32.4490000  32.9060000  35.0200000  32.5600000  32.5050000  36.4760000
   8.2750000  40.5170000  23.1900000   8.9450000  40.9940000  23.6800000
   7.9720000  41.1390000  22.5290000  25.3740000  28.1350000  39.9020000
  24.6970000  28.4870000  40.4810000  25.7390000  27.3930000  40.3830000
  29.5030000  19.4870000  33.9370000  28.7130000  19.6790000  34.4430000
  29.1910000  18.9660000  33.1960000  21.1190000  13.1960000  29.3900000
  20.4990000  13.7690000  28.9390000  20.8130000  12.3100000  29.1940000
   3.3400000  25.9790000  13.2940000   3.2010000  25.1270000  13.7070000
   2.7690000  25.9690000  12.5260000  30.2040000  31.6830000   3.3990000
  30.0870000  30.7340000   3.3700000  30.8480000  31.8250000   4.0930000
  35.9620000  37.9110000  22.3030000  36.5960000  38.6130000  22.4460000
  36.2370000  37.5030000  21.4810000  17.4030000  41.0560000   9.8370000
  16.5820000  40.5640000   9.8460000  18.0410000  40.4640000  10.2350000
   0.2850000  24.6440000  30.4930000   0.4230000  25.5010000  30.8950000
   0.0540000  24.8400000  29.5850000  38.6480000  24.8550000  12.6980000
  37.9870000  25.1970000  12.0960000  38.1890000  24.1840000  13.2030000
  44.7290000  25.3250000  27.8720000  44.0510000  24.7820000  28.2730000
  44.2720000  26.1230000  27.6060000  23.3890000  13.6730000  30.9890000
  22.5460000  13.6540000  30.5370000  24.0320000  13.4930000  30.3040000
  23.7770000   6.7540000  15.8390000  23.6560000   6.2710000  15.0220000
  23.0670000   7.3970000  15.8440000  18.4580000  12.3220000   3.5520000
  17.8500000  11.5930000   3.6750000  18.0600000  13.0490000   4.0310000
  29.3860000  25.6830000  22.5730000  29.9120000  26.4770000  22.6660000
  28.5480000  25.9020000  22.9810000  11.2540000  31.1820000  33.0970000
  11.4350000  31.2260000  32.1580000  11.1980000  30.2460000  33.2870000
  21.8120000  27.4900000  33.8280000  22.6850000  27.1400000  34.0090000
  21.4060000  26.8370000  33.2590000  18.6370000  15.3910000  36.5760000
  19.0110000  15.3600000  35.6960000  19.3850000  15.5610000  37.1490000
  32.0110000  11.5430000  29.1460000  32.1160000  11.7580000  28.2190000
  32.9040000  11.5280000  29.4910000   8.9900000  19.9350000  35.2080000
   9.0000000  19.7150000  36.1400000   9.7990000  20.4270000  35.0700000
  41.7760000  11.9120000  18.3060000  42.0720000  12.5380000  18.9660000
  42.3540000  11.1570000  18.4150000  14.6620000   9.5310000  27.5360000
  14.9150000   8.6300000  27.3380000  13.8270000   9.6500000  27.0820000
  42.6830000  13.1030000  37.5690000  41.9600000  13.7300000  37.5470000
  42.2800000  12.2640000  37.3460000  20.8500000  25.3450000  35.8460000
  20.9640000  25.9960000  36.5380000  20.3690000  25.8070000  35.1590000
  36.3050000  41.4630000  20.7670000  36.7320000  40.9220000  21.4300000
  37.0250000  41.9120000  20.3240000   3.9740000  40.5880000   5.4930000
   3.1840000  40.6550000   6.0300000   3.9540000  41.3700000   4.9410000
   5.7800000  42.8680000  16.3260000   5.5950000  43.5830000  15.7170000
   5.7110000  42.0760000  15.7920000  15.8640000   1.1300000   2.8390000
  16.2450000   0.5970000   3.5360000  16.5850000   1.6810000   2.5360000
  18.5800000  40.5420000  39.8060000  18.5440000  41.1880000  39.1010000
  18.2950000  39.7250000  39.3970000   7.2740000   0.4320000   3.3100000
   8.0120000   0.7900000   3.8030000   6.7380000   1.1940000   3.0930000
  31.3700000  39.0830000  31.2100000  31.0920000  38.7370000  32.0580000
  32.1470000  38.5710000  30.9850000  32.5950000  25.6060000  33.9470000
  33.0580000  25.3220000  34.7350000  31.7780000  25.9850000  34.2720000
  30.7490000  16.6940000  23.9870000  30.6500000  17.1220000  23.1360000
  30.5780000  17.3870000  24.6250000  20.2790000  29.8030000  35.5310000
  20.8030000  29.1320000  35.0940000  19.4640000  29.3570000  35.7640000
  32.1340000  34.1110000  33.6490000  32.3560000  34.4910000  32.7990000
  32.8210000  34.4230000  34.2380000  23.2450000  34.0710000  11.8900000
  22.9670000  33.9540000  10.9810000  22.5560000  34.6040000  12.2850000
  33.3330000  15.6520000  26.2600000  32.9890000  15.3790000  25.4100000
  34.2740000  15.4840000  26.2030000  23.5810000  36.9640000  38.9200000
  23.3540000  37.2370000  39.8090000  23.9460000  37.7500000  38.5140000
  20.4920000  39.6730000   9.2060000  20.3650000  39.3450000   8.3150000
  21.2810000  40.2130000   9.1520000  42.6610000   8.0020000  29.0040000
  42.0900000   8.7560000  29.1510000  42.0680000   7.3030000  28.7250000
  30.0290000   9.0670000   6.3490000  30.0800000   8.1120000   6.3910000
  29.9700000   9.3440000   7.2640000  41.8340000   0.4500000  29.0450000
  41.7070000   0.8050000  29.9250000  41.2610000   0.9760000  28.4880000
  13.4290000  22.5040000  36.0460000  13.5520000  22.7830000  36.9540000
  14.2970000  22.2160000  35.7640000  44.2010000   5.8660000   8.7100000
  44.4680000   5.9630000   7.7960000  44.8380000   5.2560000   9.0830000
   5.4310000  30.7860000  19.1300000   5.1350000  30.4160000  19.9610000
   4.8430000  30.4080000  18.4760000  27.4030000  38.9630000  31.6900000
  28.0360000  38.8800000  32.4040000  27.9410000  39.0480000  30.9030000
  37.3740000  43.7260000  23.6790000  36.8850000  42.9920000  23.3050000
  37.8940000  44.0640000  22.9500000  10.7370000   2.5980000  31.5470000
  10.5500000   2.6830000  30.6120000  10.2870000   1.7950000  31.8100000
  13.5300000  12.7070000   9.3920000  13.1530000  12.0290000   8.8300000
  13.6240000  12.2840000  10.2460000  19.7730000  17.7610000  18.0630000
  20.3380000  17.3420000  17.4130000  19.1710000  17.0690000  18.3380000
  11.5800000  34.9250000  25.7830000  11.3020000  35.7140000  25.3190000
  11.4790000  35.1440000  26.7100000  43.7360000   9.5160000   1.7870000
  44.0090000  10.4220000   1.9330000  42.9010000   9.4400000   2.2500000
  35.7480000   7.7300000  11.6280000  36.4120000   8.1610000  11.0900000
  35.7720000   6.8150000  11.3500000  38.4370000  39.4200000   9.1710000
  37.8100000  39.2400000   9.8720000  38.6970000  40.3300000   9.3100000
  15.0040000   7.1630000  10.4710000  14.7320000   6.2630000  10.2890000
  15.9600000   7.1210000  10.5080000   2.9620000  11.7390000  12.6980000
   2.4350000  11.1280000  12.1820000   2.3350000  12.3890000  13.0130000
   6.8080000   8.9000000  16.6370000   6.5030000   8.0080000  16.8060000
   6.0350000   9.4470000  16.7740000  33.0140000   7.5990000   4.9650000
  33.7950000   7.5270000   5.5140000  32.4080000   6.9510000   5.3250000
   9.2180000  36.8230000   6.6190000   9.6850000  36.9120000   5.7880000
   9.0710000  35.8810000   6.7110000  19.5140000  22.4580000  35.2670000
  18.9590000  22.0510000  34.6020000  18.9440000  23.0980000  35.6950000
   7.6820000  40.1520000   9.3630000   7.3380000  39.4240000   9.8810000
   6.9410000  40.4370000   8.8280000  19.6340000  36.9950000   1.3510000
  20.0470000  36.4120000   0.7140000  19.8220000  37.8750000   1.0270000
   2.4220000  41.2180000  28.7620000   2.6300000  41.8280000  28.0540000
   2.1790000  41.7800000  29.4980000  17.9150000  14.7170000  28.5810000
  18.1760000  13.9380000  28.0880000  18.1320000  14.5090000  29.4900000
  34.8830000  18.1400000  17.2970000  34.0160000  17.7550000  17.4240000
  35.3020000  18.0750000  18.1550000  14.8960000  28.6400000  41.6220000
  15.1740000  29.0470000  40.8020000  15.6100000  28.0430000  41.8480000
   7.5290000  32.4710000  36.8300000   8.2250000  32.2030000  36.2290000
   7.4800000  33.4220000  36.7310000   0.4310000  23.3360000  40.2310000
   0.4310000  24.1660000  39.7530000  -0.4910000  23.0830000  40.2710000
  25.3540000   3.1010000  37.8750000  25.1910000   2.5040000  38.6060000
  25.1720000   3.9710000  38.2310000   4.1450000  38.3770000  36.9200000
   4.9420000  38.3070000  36.3950000   4.2580000  39.1860000  37.4200000
   2.3160000  20.6090000  34.0070000   1.4870000  20.7540000  33.5490000
   2.1610000  20.9380000  34.8920000   9.4340000  40.0060000   7.3030000
   9.5020000  39.1150000   6.9620000   8.7260000  39.9640000   7.9450000
  38.6580000  17.4050000  24.1090000  39.1220000  17.1730000  24.9130000
  38.1280000  18.1650000  24.3480000  17.4950000  30.0930000   6.4230000
  18.2690000  29.6530000   6.7750000  16.7700000  29.5020000   6.6290000
  24.5380000  40.7360000   1.7960000  25.3730000  40.4550000   2.1710000
  24.5270000  40.3510000   0.9200000  32.8830000  21.6170000   5.4940000
  32.1020000  21.0650000   5.5090000  33.4020000  21.3170000   6.2410000
  29.8180000  17.5630000  21.1430000  29.2570000  16.8710000  21.4930000
  29.2320000  18.1000000  20.6090000  41.4260000   9.4510000   3.6360000
  40.8980000  10.0690000   3.1310000  41.4020000   9.7900000   4.5310000
  25.7430000  18.7580000  29.7400000  25.7160000  17.8500000  29.4370000
  26.0790000  19.2500000  28.9910000  20.7040000   6.5850000  36.3890000
  21.2600000   6.7300000  35.6240000  20.7990000   5.6520000  36.5820000
   0.1820000  31.9250000  39.4440000  -0.6520000  32.2220000  39.8090000
   0.5560000  32.7060000  39.0360000  32.1660000  41.1940000  28.6190000
  32.9620000  41.7200000  28.5360000  32.3290000  40.6290000  29.3740000
  34.0160000  40.3110000  23.8870000  34.4460000  41.1550000  23.7510000
  33.0810000  40.5080000  23.8400000  36.2670000  16.6490000  30.1400000
  36.4700000  15.7280000  29.9760000  35.3440000  16.6490000  30.3940000
  13.4250000  34.9710000  15.8720000  12.5850000  35.2360000  16.2470000
  13.5440000  34.0680000  16.1640000  13.5920000  10.2870000  16.7100000
  14.0150000   9.8010000  17.4180000  13.3060000   9.6120000  16.0940000
  28.1430000  38.6060000   6.5570000  28.8610000  39.0990000   6.1600000
  27.9090000  37.9520000   5.8980000   3.1450000  43.0630000  22.0300000
   3.8150000  42.5290000  22.4570000   3.6060000  43.4980000  21.3140000
  10.7710000  36.5590000   9.2930000  10.2720000  35.8790000   9.7480000
  10.2660000  36.7340000   8.4990000  16.4540000  36.1780000   7.2460000
  15.5460000  35.9760000   7.4700000  16.9690000  35.7630000   7.9370000
   8.5870000  24.5150000  11.6470000   7.7380000  24.7370000  12.0290000
   9.1690000  25.2210000  11.9280000   2.2330000  28.4080000   3.9420000
   1.7250000  27.6710000   3.6030000   1.8750000  28.5640000   4.8150000
  40.2670000  25.6640000  41.1110000  39.7330000  24.9040000  41.3430000
  39.6310000  26.3480000  40.9020000  21.4290000   1.6460000  24.9640000
  20.8350000   0.9410000  24.7070000  20.8520000   2.3820000  25.1690000
  13.9310000  12.4350000  21.6520000  13.5020000  11.5930000  21.5000000
  14.8460000  12.2830000  21.4160000  28.0750000  20.6330000  29.4160000
  28.2420000  21.4410000  28.9310000  28.7330000  20.0180000  29.0920000
   2.1310000   7.9180000  35.8970000   1.3660000   7.7820000  36.4570000
   1.9560000   8.7460000  35.4500000  16.6020000  43.5130000   4.9490000
  16.9500000  43.0040000   4.2160000  16.0230000  42.9050000   5.4090000
  37.2910000  19.8220000  22.4690000  37.8560000  19.7880000  21.6970000
  37.7820000  20.3480000  23.1010000  43.1480000  22.2040000  21.1090000
  43.5170000  21.6850000  20.3940000  42.8860000  23.0270000  20.6980000
  16.8240000   6.6300000  38.8580000  16.9800000   6.9420000  37.9660000
  17.3690000   7.1930000  39.4080000   1.4700000  31.7460000  13.8940000
   2.2450000  31.3640000  14.3050000   1.3900000  31.2840000  13.0590000
  41.5100000  26.3440000  17.5390000  41.2410000  27.2150000  17.8330000
  41.3960000  26.3660000  16.5890000   2.5670000   1.6400000  30.0400000
   2.3430000   0.7620000  30.3470000   2.5210000   1.5800000  29.0860000
  41.4890000  10.6180000  37.4700000  41.4080000   9.8590000  36.8920000
  41.0080000  10.3700000  38.2590000  41.8480000  35.2700000  10.1170000
  41.1370000  34.6970000  10.4020000  41.4630000  35.8000000   9.4180000
  14.9010000  19.9960000  39.1840000  14.7190000  19.3930000  38.4630000
  15.8340000  19.8800000  39.3630000  22.4950000  39.2090000  14.5900000
  21.8210000  38.7290000  15.0710000  22.0090000  39.7210000  13.9430000
  40.7490000  12.3520000  23.3350000  40.9760000  13.2550000  23.1150000
  40.2510000  12.0390000  22.5790000  22.8650000  30.4480000   7.0100000
  23.2770000  29.5890000   6.9180000  22.3540000  30.3830000   7.8170000
  40.7490000   6.0750000  11.5960000  40.9240000   5.1420000  11.7120000
  41.4060000   6.3660000  10.9650000  41.0660000   7.5150000  41.4220000
  40.4540000   6.9460000  41.8890000  41.2410000   7.0560000  40.6000000
  24.3330000  34.0430000  24.0780000  24.5430000  34.0090000  23.1450000
  24.8020000  34.8120000  24.4010000  33.7450000   9.6530000  18.3160000
  33.2580000  10.4060000  18.6530000  34.3990000   9.4700000  18.9900000
  18.1840000  15.0050000  17.3530000  18.0170000  15.7500000  16.7760000
  18.1520000  14.2420000  16.7750000  29.9500000  26.1040000  35.1440000
  30.2440000  25.4340000  35.7620000  29.1260000  26.4240000  35.5130000
  33.9880000   9.5120000  39.3150000  33.5460000  10.1380000  38.7420000
  34.8540000   9.3990000  38.9240000  40.0120000  30.0600000  35.9300000
  39.1420000  29.6670000  35.8630000  40.3900000  29.9530000  35.0570000
   0.5190000  32.6770000  31.6010000  -0.3130000  32.6810000  31.1270000
   1.1820000  32.7990000  30.9220000  15.8960000  41.1140000  33.7420000
  15.4850000  40.3980000  33.2570000  16.0360000  40.7590000  34.6200000
  17.8910000  43.2780000  14.3530000  17.4960000  42.9350000  13.5510000
  18.4800000  43.9700000  14.0530000  38.6520000  33.1320000  28.7630000
  38.4370000  34.0550000  28.6260000  39.4220000  33.1470000  29.3310000
  18.3880000  18.7720000  38.3320000  19.2690000  18.5330000  38.0440000
  17.8120000  18.1600000  37.8740000   8.0000000   7.0560000  28.5230000
   7.1880000   6.6290000  28.2480000   8.1340000   6.7580000  29.4230000
  24.3900000  34.1040000  21.2580000  25.1250000  34.6690000  21.0210000
  23.6230000  34.6750000  21.2110000  44.2180000  23.1970000  23.6180000
  43.4330000  23.4490000  24.1050000  43.9000000  23.0030000  22.7360000
  19.4720000  22.9770000   0.3600000  19.3350000  23.3110000   1.2470000
  19.6110000  23.7610000  -0.1720000  10.5600000  31.2130000   6.1650000
  10.6230000  30.2600000   6.2330000  10.7880000  31.4040000   5.2550000
  42.8750000   4.2340000   0.7880000  43.6910000   4.7310000   0.7240000
  43.1510000   3.3550000   1.0490000  21.8560000  17.5510000   1.9490000
  21.4840000  16.6980000   2.1750000  21.3120000  18.1820000   2.4200000
  15.7560000  28.1880000  34.1880000  16.3470000  28.2630000  34.9380000
  16.3160000  27.8900000  33.4710000   7.6290000  36.2950000  13.4800000
   8.5660000  36.1150000  13.4040000   7.5530000  37.2370000  13.3280000
  45.1270000   7.9640000  37.0940000  45.1580000   7.5960000  37.9780000
  44.3900000   7.5200000  36.6750000  13.6460000  25.2190000   0.8430000
  12.9470000  25.2480000   0.1890000  14.3030000  25.8350000   0.5180000
   6.1690000  12.8340000  36.6660000   6.9330000  12.8720000  36.0920000
   5.6290000  12.1330000  36.3010000   9.6090000  38.2280000  21.9920000
   9.2200000  39.0790000  22.1940000   9.7650000  38.2530000  21.0480000
  24.8950000  13.3640000   2.9510000  25.5990000  12.7150000   2.9670000
  24.6430000  13.4210000   2.0290000  21.0050000  40.7170000  12.2290000
  20.1330000  40.3290000  12.1530000  20.8540000  41.6600000  12.1600000
  45.2010000  14.1920000  37.7440000  44.7280000  15.0110000  37.5960000
  44.5450000  13.5080000  37.6110000  24.0340000  31.4360000  21.3610000
  24.0800000  32.3770000  21.5280000  23.7100000  31.3680000  20.4630000
  40.5840000   8.6470000  12.9180000  40.6070000   7.9230000  12.2930000
  40.6940000   9.4320000  12.3810000  13.0010000  32.7230000  27.9110000
  13.0900000  33.6080000  27.5580000  13.7030000  32.6510000  28.5580000
  26.8340000  17.6260000  12.6760000  26.5580000  16.7100000  12.7020000
  26.1740000  18.0600000  12.1360000  26.0580000  30.5740000  18.9360000
  26.3290000  30.7830000  18.0420000  26.8720000  30.3490000  19.3860000
  41.7680000   3.1460000   6.3980000  41.4530000   3.7000000   5.6830000
  41.6330000   3.6720000   7.1860000  36.7160000   7.8990000  26.0140000
  35.8670000   7.6480000  25.6480000  37.0190000   8.6100000  25.4500000
   8.2040000  12.5370000  24.6130000   9.1400000  12.4650000  24.4240000
   8.0040000  11.7570000  25.1310000   7.6660000  27.0240000  26.1400000
   6.7410000  27.2220000  26.2900000   7.7350000  26.0810000  26.2850000
  28.2240000   7.6990000   2.3030000  28.5240000   7.3310000   3.1340000
  28.4880000   8.6180000   2.3390000  21.8130000  43.8080000  41.7720000
  22.4650000  43.7690000  42.4730000  21.1270000  43.2020000  42.0500000
  32.2210000  30.8230000  18.1260000  32.2560000  30.7420000  17.1730000
  31.3990000  31.2830000  18.2980000  34.4660000  38.1010000  18.7570000
  34.0630000  38.0800000  19.6250000  34.7440000  39.0100000  18.6450000
  42.8800000   1.0910000  35.8650000  42.2730000   1.8060000  35.6710000
  42.7980000   0.4980000  35.1190000   0.5850000  37.5500000  11.2230000
   0.2710000  36.8480000  10.6530000   0.2160000  38.3490000  10.8450000
  36.0500000  37.2860000   8.0120000  36.8330000  37.8240000   8.1230000
  35.3620000  37.9090000   7.7780000  17.8520000  27.5160000  19.7150000
  18.1390000  26.6280000  19.5020000  16.9080000  27.4360000  19.8510000
  28.9240000  15.5750000   7.1680000  29.3320000  14.7090000   7.1690000
  27.9920000  15.4010000   7.3010000   8.4230000  39.9280000  33.0400000
   8.1940000  40.5510000  33.7290000   7.6040000  39.4710000  32.8480000
  11.5480000   3.9810000   1.2370000  12.3340000   3.6450000   0.8070000
  11.5930000   4.9290000   1.1110000  25.9920000   4.6920000  23.9900000
  25.0430000   4.7350000  24.1100000  26.1140000   4.6940000  23.0400000
   1.1340000  34.4290000  13.6850000   1.3340000  34.7490000  14.5650000
   1.2530000  33.4810000  13.7420000  24.2210000  42.9420000  14.1110000
  24.7150000  43.7080000  13.8170000  24.3390000  42.2980000  13.4130000
  20.8890000  35.1730000  41.3570000  20.9810000  34.4750000  42.0050000
  20.1120000  34.9310000  40.8530000   8.7990000  26.3060000  39.7850000
   9.6210000  26.5580000  39.3640000   8.2850000  27.1130000  39.8080000
  23.3800000  29.1650000  18.6230000  23.7750000  28.2970000  18.5510000
  24.0870000  29.7700000  18.3960000  40.7010000  10.0950000  40.2650000
  40.8370000   9.3490000  40.8480000  40.1240000  10.6810000  40.7560000
   7.8470000  27.3170000   0.9360000   8.7230000  27.6130000   1.1820000
   7.8500000  27.3290000  -0.0210000  40.0200000  40.6080000  17.8570000
  39.1390000  40.2740000  17.6880000  39.8850000  41.3510000  18.4460000
   4.9250000  20.7550000  14.6960000   5.6880000  20.3070000  15.0610000
   4.6730000  21.3870000  15.3690000  37.3490000   7.2590000  30.1790000
  37.4870000   7.5160000  29.2670000  37.7580000   6.3960000  30.2480000
  35.7740000   1.5390000   1.7060000  36.6060000   1.2160000   1.3590000
  35.9050000   1.5720000   2.6530000  36.4460000  37.2350000  16.4440000
  35.7740000  36.6120000  16.7200000  36.5700000  37.0560000  15.5120000
   5.6690000  34.3500000  38.5030000   6.2530000  35.1040000  38.5750000
   5.7920000  33.8720000  39.3230000   1.8980000  19.6420000  18.1930000
   2.3440000  20.1040000  18.9020000   2.6050000  19.2660000  17.6690000
   7.3250000  16.0310000  18.1480000   7.0540000  15.1280000  18.3150000
   7.3860000  16.4270000  19.0180000   0.8230000  30.8140000  22.4180000
   1.1910000  31.6380000  22.0980000   1.0420000  30.8000000  23.3490000
  33.3030000  31.5270000   0.9970000  32.9150000  32.3030000   1.4030000
  32.5550000  31.0290000   0.6680000  27.7080000  12.6800000  33.5550000
  27.5140000  11.7570000  33.3940000  28.0100000  13.0120000  32.7090000
  44.3180000  42.8190000   4.7540000  44.9840000  43.1500000   4.1510000
  44.3350000  41.8690000   4.6320000   3.2840000  21.2710000  20.0270000
   3.8840000  21.8490000  19.5560000   2.7570000  21.8600000  20.5670000
  14.0630000  11.0100000  33.5990000  13.8350000  10.4790000  32.8360000
  13.8250000  11.9030000  33.3500000  15.9850000  43.5880000  28.7840000
  15.7160000  44.3640000  29.2740000  16.1610000  42.9290000  29.4560000
  29.7770000   9.2760000  32.6360000  30.1260000   9.2590000  31.7450000
  28.8980000   9.6440000  32.5420000  33.6500000  43.7490000   7.2330000
  34.4730000  43.7320000   7.7230000  33.1560000  43.0020000   7.5690000
  36.3320000  25.7650000  15.4140000  36.5600000  26.3880000  14.7230000
  36.6770000  24.9280000  15.1050000  28.2920000  21.8140000  39.2280000
  28.9560000  21.4710000  39.8250000  28.1650000  21.1170000  38.5840000
   7.1420000  22.4820000   1.6150000   6.6660000  22.6550000   0.8030000
   7.4570000  21.5830000   1.5220000  39.2020000  16.5380000  15.1410000
  39.5090000  15.8370000  15.7160000  38.8550000  17.2020000  15.7370000
  21.1640000  13.2460000  17.6100000  21.3590000  14.0420000  18.1040000
  21.6380000  13.3530000  16.7860000   0.2130000   7.8690000  29.3440000
   0.7230000   8.0870000  28.5630000  -0.6760000   8.1570000  29.1380000
  27.4610000  18.9830000  38.9930000  26.7480000  18.8110000  39.6090000
  27.0530000  18.9180000  38.1300000  28.1390000  32.9040000  37.0370000
  27.3580000  32.7520000  37.5690000  28.7440000  33.3590000  37.6230000
  41.1240000  24.1440000  11.3640000  41.6810000  23.9070000  12.1060000
  40.2910000  24.3980000  11.7600000  26.9170000  26.6040000   1.0260000
  27.8100000  26.6090000   1.3680000  26.4420000  26.0050000   1.6030000
  15.3690000   1.5860000   6.4110000  16.0740000   2.2000000   6.6180000
  15.7920000   0.9040000   5.8870000  43.9270000  33.5400000  16.7850000
  44.7390000  34.0320000  16.6680000  43.7480000  33.1640000  15.9230000
  11.0960000  18.8230000  33.1680000  10.2450000  18.7820000  33.6040000
  11.2660000  17.9240000  32.8880000  35.5540000  11.5020000  24.1710000
  36.4510000  11.2210000  24.3550000  35.6530000  12.3480000  23.7360000
  35.6630000  31.3630000  41.9280000  34.7450000  31.5370000  42.1370000
  36.1130000  31.4070000  42.7720000  43.6180000  27.9100000  38.0020000
  43.5300000  27.0380000  38.3880000  44.3900000  28.2830000  38.4280000
  24.6690000   6.9300000  37.7570000  24.5730000   6.4250000  38.5650000
  25.5360000   7.3310000  37.8260000   9.7800000  26.7550000  19.5880000
   9.5520000  27.6450000  19.8560000  10.3600000  26.8730000  18.8360000
  41.0020000  20.6550000  25.0750000  41.0220000  21.5950000  25.2560000
  40.9280000  20.5960000  24.1220000   4.4500000  40.4900000  38.4660000
   3.5930000  40.9110000  38.4020000   4.4660000  40.1110000  39.3450000
   3.1540000  38.2540000  11.8660000   2.2690000  37.9120000  11.7420000
   3.7040000  37.7010000  11.3120000  14.8730000  28.5250000   4.7180000
  15.3660000  28.3520000   5.5200000  14.5010000  29.3970000   4.8480000
  29.7750000  38.6830000  41.1100000  29.8200000  37.7800000  40.7940000
  30.4130000  38.7200000  41.8220000  43.7360000  16.1230000   0.3800000
  44.2640000  16.9200000   0.3540000  43.5840000  15.9050000  -0.5390000
  12.4720000   9.1630000   2.5420000  11.7760000   8.8480000   1.9650000
  12.2420000  10.0750000   2.7180000   7.4350000  30.4040000  31.9100000
   7.3610000  30.0230000  32.7850000   6.6440000  30.1140000  31.4550000
   7.5610000  13.4490000  41.9350000   7.4600000  12.6370000  41.4390000
   8.4340000  13.7660000  41.7010000   7.2030000  28.5410000   5.6040000
   6.6980000  27.8060000   5.2560000   7.8590000  28.1340000   6.1710000
  38.3710000  14.3040000  20.1560000  38.7600000  14.0880000  21.0030000
  38.7510000  13.6690000  19.5490000  44.4760000  41.0060000   8.2900000
  44.0850000  41.6880000   7.7430000  44.8060000  41.4740000   9.0570000
   4.6510000  12.4260000  10.7650000   4.0820000  12.0170000  11.4170000
   4.1590000  12.3670000   9.9460000  19.5850000  43.3240000  29.3220000
  19.8880000  42.6330000  28.7330000  19.3070000  44.0310000  28.7390000
  28.4600000  19.2290000  24.1690000  29.4100000  19.3050000  24.2480000
  28.1290000  20.0980000  24.3970000   6.4790000  36.5340000  27.8310000
   7.3670000  36.6490000  27.4950000   6.5910000  36.4440000  28.7770000
  13.4550000   9.1490000  31.2640000  13.5920000   8.8260000  30.3740000
  13.6010000   8.3850000  31.8220000   2.5990000  26.7650000  30.5360000
   2.5600000  26.5810000  31.4750000   3.5340000  26.8130000  30.3400000
  25.1950000  11.9280000  15.7190000  25.2890000  11.0460000  16.0790000
  25.3420000  12.5080000  16.4650000  44.1300000   7.3160000  33.1150000
  44.9870000   7.0360000  32.7950000  44.0200000   6.8500000  33.9440000
  24.3230000  26.6290000  34.8160000  24.6520000  27.1690000  34.0970000
  24.5260000  27.1310000  35.6050000  34.9790000   1.4340000  15.2300000
  34.6830000   1.9860000  14.5060000  34.5610000   1.8110000  16.0040000
  40.6800000  34.1990000  19.0110000  40.3340000  34.2540000  19.9020000
  40.6380000  35.0970000  18.6820000   6.7030000  18.6870000  16.7920000
   7.3080000  19.0720000  16.1580000   6.9950000  17.7800000  16.8810000
  22.1830000  29.4470000  37.5660000  22.5080000  30.1710000  38.1000000
  21.5360000  29.8480000  36.9860000  39.7920000  30.1980000  30.2580000
  39.0270000  29.6530000  30.4430000  40.3940000  29.6170000  29.7940000
  38.0240000   8.0370000  39.8010000  38.9050000   7.6650000  39.7720000
  37.4420000   7.2790000  39.7470000  18.4610000  42.0090000   7.2910000
  18.4760000  41.9860000   8.2470000  17.6270000  41.6020000   7.0540000
  30.5280000  13.3930000  10.6060000  31.3810000  13.0980000  10.9250000
  29.8940000  12.8920000  11.1180000  42.3080000  21.2510000   1.8430000
  42.4410000  20.4320000   2.3200000  42.3640000  21.9320000   2.5140000
  36.1750000  36.4840000  33.6060000  36.6750000  37.1360000  34.0960000
  36.2480000  35.6840000  34.1260000  20.2470000   6.0380000  10.7400000
  20.6610000   5.2820000  10.3240000  20.1390000   5.7790000  11.6550000
  14.2240000  42.3790000  18.6610000  14.3880000  41.4670000  18.9030000
  14.1470000  42.3640000  17.7070000  35.0660000  13.7770000  20.8730000
  35.6150000  14.1730000  21.5500000  35.5470000  13.9240000  20.0580000
  11.9430000   8.7260000  38.1400000  11.7350000   8.1200000  38.8510000
  11.9160000   9.5920000  38.5470000  13.9060000  21.1430000  16.3360000
  13.5020000  21.5620000  17.0960000  14.3060000  20.3470000  16.6850000
  25.4250000  25.6290000  19.7210000  24.7410000  25.4900000  20.3750000
  24.9590000  25.9650000  18.9550000  32.1930000  21.9780000  36.0910000
  31.3810000  21.5260000  36.3200000  32.3760000  21.7000000  35.1930000
  10.5240000  24.4350000  17.7240000  10.4990000  24.1970000  18.6510000
  10.4140000  25.3860000  17.7180000  38.2570000   7.4670000  33.6050000
  38.5840000   8.2940000  33.2490000  38.6840000   6.7930000  33.0760000
  26.2310000   0.6200000  39.2890000  26.5770000  -0.2720000  39.2770000
  27.0080000   1.1780000  39.3340000  30.6060000  36.2850000  37.7260000
  30.2880000  35.9150000  36.9030000  31.1280000  37.0430000  37.4620000
  15.5240000  19.5810000  21.8450000  16.1980000  19.4160000  22.5040000
  14.9540000  18.8140000  21.8870000  26.7240000  19.1430000  16.8150000
  27.6570000  19.3460000  16.8860000  26.5610000  18.5170000  17.5200000
   7.0560000  22.0860000  19.9430000   7.9480000  22.3890000  20.1080000
   6.6790000  21.9630000  20.8150000  23.5790000  13.8050000   7.6780000
  23.7490000  13.4180000   6.8200000  23.2580000  13.0780000   8.2110000
  19.4560000  13.8580000  11.7090000  19.6040000  13.2170000  12.4040000
  18.6540000  13.5630000  11.2780000   5.3470000   9.7520000  26.6110000
   5.3990000   8.8520000  26.9330000   5.3830000   9.6690000  25.6580000
  16.9040000  16.1350000   8.9610000  16.4230000  16.6630000   9.5990000
  16.4540000  16.2940000   8.1310000  20.5340000   9.3020000   1.8490000
  20.1000000   9.3340000   0.9960000  21.2890000   8.7300000   1.7130000
  18.6780000  15.1150000  21.6310000  18.8240000  16.0110000  21.9350000
  19.3330000  14.5950000  22.0960000  13.5470000  14.9740000  15.7720000
  13.4290000  15.5730000  16.5100000  13.0140000  14.2110000  15.9950000
  42.8070000   9.0780000  11.1820000  42.9980000   9.8690000  11.6850000
  43.3220000   8.3930000  11.6080000   0.3750000  30.2410000  19.0950000
  -0.3990000  30.0320000  18.5710000   0.2830000  31.1720000  19.2970000
   3.9210000  14.2100000  39.7440000   3.6300000  13.6530000  39.0230000
   4.4510000  14.8880000  39.3250000  10.1620000   0.9030000  22.4230000
  10.7190000   1.0070000  23.1950000  10.6220000   1.3770000  21.7300000
  12.4260000  24.4390000   9.4100000  11.9870000  25.2300000   9.7240000
  12.2030000  23.7690000  10.0560000  28.3120000  27.3590000   3.5130000
  28.2690000  27.0120000   4.4040000  29.1490000  27.8230000   3.4760000
  34.0750000  22.6800000  26.4220000  34.5370000  21.8430000  26.3660000
  34.4320000  23.2000000  25.7020000  44.3570000   4.8480000  34.2150000
  44.1980000   4.2720000  33.4680000  44.9110000   4.3320000  34.8020000
  19.3260000  15.2180000   6.4170000  19.4490000  15.2690000   7.3650000
  19.9750000  14.5780000   6.1260000  26.3850000  39.0510000  11.0870000
  26.5810000  39.9030000  11.4780000  26.6220000  39.1500000  10.1650000
  34.4910000  41.3040000  32.6740000  34.7160000  42.0530000  33.2260000
  33.6240000  41.5130000  32.3280000  42.9010000   9.6570000   7.5420000
  42.5250000   9.1330000   8.2490000  43.3030000  10.4040000   7.9850000
  16.5760000  12.6590000  14.1170000  16.8690000  12.1420000  14.8670000
  16.6500000  12.0640000  13.3710000   7.6110000  32.4470000  14.5520000
   7.7400000  31.8910000  13.7840000   7.2840000  31.8520000  15.2270000
  30.2970000   7.8900000  26.0640000  29.4520000   8.3380000  26.1150000
  30.0760000   6.9850000  25.8480000   0.8840000  33.4620000  37.0450000
   1.7630000  33.1090000  37.1790000   0.7400000  33.3940000  36.1010000
  11.2250000  18.9610000   1.8280000  11.0180000  18.5780000   0.9760000
  11.6520000  19.7920000   1.6210000  43.9100000  17.1150000  20.2090000
  43.9550000  17.8660000  20.8000000  44.4890000  16.4640000  20.6050000
  44.5170000   9.5480000  15.7540000  45.2590000   8.9430000  15.7510000
  43.7500000   8.9860000  15.6380000   1.9370000  31.9740000  24.6410000
   1.3500000  31.8110000  25.3790000   2.0040000  32.9270000  24.5940000
  31.2520000  28.6250000  19.1520000  31.8580000  29.1450000  18.6240000
  31.3390000  28.9810000  20.0370000  44.2860000   3.2160000  31.7350000
  43.6360000   3.0150000  31.0620000  45.1000000   3.3480000  31.2490000
  43.1460000  34.6110000  12.7720000  43.1190000  35.2930000  12.1010000
  42.8130000  35.0380000  13.5610000  16.7320000  42.4030000  31.3100000
  15.9540000  42.4640000  31.8640000  17.3500000  41.8820000  31.8210000
  12.0290000  16.1230000  32.5960000  11.7870000  15.7130000  33.4260000
  11.3330000  15.8660000  31.9910000   4.1540000   7.8360000  31.2830000
   4.4620000   6.9780000  30.9910000   4.9140000   8.2300000  31.7110000
  21.0500000  28.3870000   8.1900000  20.6400000  27.8810000   7.4870000
  20.6040000  29.2330000   8.1660000  19.7730000  42.3830000   0.6710000
  19.8080000  42.8600000   1.5000000  19.0150000  42.7500000   0.2160000
  29.9430000  12.6650000  38.9340000  29.9370000  12.1340000  39.7300000
  29.8420000  12.0330000  38.2230000  44.4540000  27.8700000  42.0710000
  44.5450000  26.9880000  42.4310000  44.8800000  27.8240000  41.2150000
  29.8260000  31.0470000  15.7460000  29.0330000  30.6110000  15.4320000
  29.6850000  31.1520000  16.6870000  10.0070000  26.4400000  28.8620000
   9.8240000  27.3790000  28.8970000   9.9450000  26.2180000  27.9330000
  35.8840000  30.2510000  24.4370000  36.6370000  30.8270000  24.5760000
  35.1250000  30.8300000  24.5020000  23.7620000  -0.1000000   7.4220000
  23.8670000   0.8120000   7.1520000  24.6550000  -0.4390000   7.4770000
  27.4740000   8.6200000  11.8730000  27.2120000   8.6940000  10.9550000
  26.6710000   8.7920000  12.3650000  37.1570000  43.8270000   4.9840000
  38.0200000  44.2220000   5.1110000  37.1510000  43.0710000   5.5700000
  30.4070000  18.7840000   2.2270000  29.6220000  18.3550000   2.5670000
  30.3760000  19.6670000   2.5940000   1.6670000  33.3840000  19.9810000
   1.2550000  33.6430000  19.1570000   1.1490000  33.8210000  20.6570000
   9.3400000  17.4590000   8.3730000   9.0450000  16.6630000   8.8150000
  10.2920000  17.3700000   8.3280000  30.0060000  35.3240000  19.1390000
  30.7500000  35.2420000  18.5430000  29.2860000  35.6220000  18.5830000
  28.9490000   1.2030000  23.4830000  29.3960000   1.0120000  22.6590000
  28.7080000   2.1270000  23.4170000  16.7720000  32.2550000  18.5020000
  16.2690000  32.2800000  19.3160000  16.6430000  31.3670000  18.1680000
  33.4360000  37.6280000  30.0430000  33.9530000  36.9870000  29.5550000
  34.0230000  38.3760000  30.1520000  11.6200000  22.9220000  11.6420000
  12.1420000  23.6480000  11.9810000  11.6660000  22.2530000  12.3250000
  24.3530000   2.3340000  40.4530000  24.9040000   1.6340000  40.1020000
  23.8000000   1.9000000  41.1020000  32.6870000  43.7890000   2.6910000
  32.8770000  43.5570000   3.6000000  31.9270000  43.2540000   2.4610000
  33.6300000  30.1030000  15.6350000  34.3590000  29.7900000  16.1710000
  33.4230000  29.3660000  15.0600000  23.0880000  29.6920000  32.8600000
  22.3970000  29.0920000  33.1400000  23.0330000  30.4240000  33.4750000
  31.8700000  16.8700000  38.4850000  32.0850000  15.9570000  38.2910000
  31.0370000  17.0190000  38.0370000  17.4490000  37.2830000  41.1750000
  16.7600000  37.5060000  40.5490000  17.6920000  38.1190000  41.5720000
  17.5200000  22.7340000  11.6210000  17.1680000  22.4380000  10.7810000
  16.8250000  22.5450000  12.2520000  29.2360000   1.2870000  29.8190000
  29.1470000   0.3750000  29.5400000  28.4570000   1.4520000  30.3500000
   0.8060000  25.5310000  15.2770000   1.4380000  25.5530000  15.9950000
   0.6640000  26.4510000  15.0540000  35.1410000  37.3260000  41.3770000
  35.6980000  37.9380000  41.8580000  34.4680000  37.0690000  42.0080000
  44.4170000  38.9930000  18.4510000  45.2180000  38.4750000  18.5350000
  44.6370000  39.6730000  17.8160000  35.5930000  10.9490000   1.8110000
  34.8570000  10.6150000   2.3230000  36.3520000  10.4680000   2.1420000
  35.1380000  22.5700000  30.2310000  35.0960000  23.1460000  30.9940000
  34.4460000  22.8880000  29.6520000   4.1040000  21.2130000  11.5110000
   3.2410000  21.6150000  11.5990000   4.6110000  21.5700000  12.2400000
   0.2270000  12.1890000   2.4750000  -0.1150000  12.9060000   3.0090000
   0.6390000  12.6230000   1.7280000  41.3070000  13.4770000  34.0690000
  40.9770000  12.9050000  33.3760000  40.5380000  13.9650000  34.3620000
  17.5980000  40.4000000  13.5240000  17.7190000  40.2300000  12.5900000
  17.8630000  39.5850000  13.9510000  29.4860000  20.2580000   6.2020000
  29.7300000  19.3330000   6.2510000  29.1600000  20.3730000   5.3100000
  39.9210000   8.9180000  27.2640000  39.1440000   9.4740000  27.3240000
  40.6420000   9.4830000  27.5420000  21.3700000   5.5350000   0.1150000
  21.7900000   5.8760000  -0.6750000  21.1710000   6.3130000   0.6360000
  16.1700000  24.0290000  23.7920000  15.2250000  24.1780000  23.7490000
  16.2630000  23.2300000  24.3110000  44.4230000  35.6950000   9.7270000
  44.8640000  34.8910000   9.4510000  43.5760000  35.3990000  10.0620000
  30.4040000  17.7040000   5.6020000  30.6290000  17.5840000   4.6790000
  29.8660000  16.9420000   5.8180000   6.5170000   7.4220000  36.3610000
   6.8490000   7.8660000  35.5800000   5.5720000   7.3660000  36.2200000
  10.2390000  20.3260000  29.5110000  10.5440000  19.4220000  29.5880000
  10.8180000  20.8240000  30.0880000  39.6740000  41.3770000  12.3340000
  39.1170000  40.7120000  12.7380000  39.0990000  42.1340000  12.2200000
  39.1590000  36.3340000   2.0350000  39.0680000  37.2870000   2.0410000
  40.0780000  36.1840000   1.8110000  27.2780000  21.6430000  24.3650000
  26.7080000  21.9560000  23.6630000  27.0830000  22.2170000  25.1060000
   1.1730000  20.5560000  27.4940000   1.7070000  21.0950000  28.0780000
   0.5900000  21.1790000  27.0600000  40.3820000  29.1770000   9.7540000
  39.8200000  29.0770000  10.5230000  41.1240000  28.5960000   9.9230000
  20.4080000  26.5050000  18.3170000  19.8240000  25.8220000  18.6470000
  20.2280000  26.5410000  17.3780000   0.0930000  19.5410000  16.0360000
   0.6650000  19.9130000  15.3640000   0.5350000  19.7370000  16.8620000
  22.8310000  40.6110000   8.4690000  23.1100000  41.3330000   7.9050000
  23.1670000  39.8260000   8.0370000   1.3870000   8.5480000  17.8470000
   2.0920000   8.0370000  18.2450000   1.7660000   9.4170000  17.7140000
   6.1340000  25.1760000  39.3390000   7.0620000  25.3710000  39.4700000
   5.8130000  25.8950000  38.7940000  20.9140000  22.9810000  15.7690000
  20.6750000  22.2790000  16.3750000  21.4520000  22.5510000  15.1050000
   4.1810000  42.8590000   3.8530000   4.4060000  42.3470000   3.0760000
   4.6340000  43.6930000   3.7300000   5.4130000  18.9220000  42.5310000
   5.8850000  19.4860000  41.9180000   4.9480000  18.2990000  41.9730000
  35.1230000  11.7020000  11.7950000  34.9480000  10.8170000  12.1150000
  35.6360000  12.1110000  12.4920000  14.2310000  33.1130000   9.6650000
  14.5900000  32.9800000  10.5430000  14.0490000  34.0520000   9.6200000
  39.3820000   3.8170000  29.4690000  38.5060000   3.5510000  29.7490000
  39.3080000   3.9260000  28.5210000  16.5550000  29.8870000  12.9030000
  17.2320000  30.3610000  13.3860000  17.0410000  29.2920000  12.3320000
  36.0410000   7.6540000  42.4040000  35.6140000   6.8500000  42.7000000
  35.7040000   7.7920000  41.5190000  40.4930000  17.7010000  38.3130000
  39.7020000  17.4110000  37.8580000  40.1700000  18.1210000  39.1100000
  43.4720000  17.2040000   3.7120000  43.9670000  17.8890000   3.2620000
  43.7050000  17.3070000   4.6350000  39.5230000  38.4720000  13.3830000
  39.3660000  37.6830000  12.8650000  40.4170000  38.7310000  13.1600000
   9.2740000  33.3010000  27.1360000   9.0370000  33.9860000  26.5110000
   9.6740000  33.7710000  27.8680000  12.0940000  15.4120000  26.7760000
  11.9520000  15.3120000  25.8350000  12.1640000  14.5150000  27.1040000
  32.5130000  12.4880000  17.2160000  31.6400000  12.8680000  17.3100000
  32.5580000  12.2150000  16.2990000  34.0120000  31.8400000  29.3410000
  33.6870000  31.3860000  30.1180000  34.9650000  31.7700000  29.4020000
  22.9530000  35.8630000  36.4360000  23.2710000  36.1590000  37.2880000
  23.6030000  35.2230000  36.1460000  20.7240000  31.7790000  39.1650000
  20.4940000  31.7910000  40.0940000  20.0320000  32.2850000  38.7390000
  24.4150000  21.3940000  35.6030000  24.2010000  22.3080000  35.4200000
  23.5740000  20.9390000  35.5660000  22.7100000  12.8140000  23.9710000
  22.0640000  13.1740000  23.3630000  23.3500000  12.3760000  23.4090000
  27.6120000  43.2110000   1.1730000  28.5210000  43.1090000   0.8930000
  27.3740000  44.0950000   0.8950000   8.3340000  19.9020000   2.1610000
   8.5450000  20.2620000   3.0220000   9.1780000  19.6260000   1.8030000
   4.1800000  38.1990000   4.2020000   3.7610000  39.0590000   4.2280000
   4.6810000  38.1520000   5.0170000  31.4320000  13.1890000  31.7800000
  31.7720000  12.5750000  31.1290000  31.9860000  13.0530000  32.5490000
  40.1600000  30.4670000   5.1360000  40.0730000  29.8090000   5.8250000
  40.5210000  29.9880000   4.3910000   8.2650000  11.1710000  18.8230000
   8.5190000  12.0650000  18.5920000   8.9960000  10.6290000  18.5260000
  13.3380000  26.5020000  25.0760000  14.0060000  26.3820000  25.7520000
  13.4850000  25.7810000  24.4630000  41.9910000  26.0180000  24.3330000
  42.7060000  26.1290000  23.7060000  41.2660000  26.5200000  23.9610000
  39.4520000  28.9360000  27.3680000  39.9270000  28.1800000  27.7130000
  38.5280000  28.7100000  27.4810000  17.3900000   5.7660000  16.9710000
  18.3110000   5.8330000  16.7180000  17.1600000   6.6450000  17.2730000
  25.0220000  27.2120000  37.5160000  25.1100000  27.6910000  38.3410000
  24.8280000  26.3130000  37.7810000  40.1250000   5.7000000  38.4040000
  39.5260000   5.2620000  39.0090000  39.5550000   6.0820000  37.7370000
  43.2340000  15.2640000  12.2480000  43.7830000  15.7880000  11.6650000
  43.0920000  15.8250000  13.0110000  32.9330000  21.8000000   2.5040000
  33.5370000  21.3270000   3.0770000  33.3450000  21.7670000   1.6410000
  40.4840000  23.6570000  31.1420000  39.6090000  23.3220000  30.9460000
  40.9530000  22.9040000  31.5010000  20.0180000  31.0140000   8.0880000
  19.9300000  31.1640000   7.1470000  19.9210000  31.8810000   8.4800000
  39.8150000   1.0920000   5.5170000  40.6800000   1.3330000   5.1870000
  39.6090000   1.7650000   6.1650000  30.0480000  13.4420000  35.1250000
  30.7420000  13.6230000  34.4910000  29.5130000  12.7670000  34.7080000
   9.2770000  37.0860000  30.3150000   8.6560000  36.3590000  30.2660000
   9.6740000  37.0030000  31.1820000   9.2580000  30.5240000  27.6010000
   8.3330000  30.3410000  27.7710000   9.3090000  31.4780000  27.5600000
   7.8210000  17.6660000  13.7960000   8.2290000  18.4300000  13.3890000
   8.5320000  17.2430000  14.2780000   9.4780000  16.4920000  15.9750000
   9.6490000  15.5800000  15.7410000   8.8890000  16.4400000  16.7270000
  13.9650000  33.3880000  35.4890000  14.5000000  33.8350000  34.8330000
  14.1130000  32.4560000  35.3240000   5.6490000   4.7060000   9.2590000
   5.6460000   5.2450000   8.4680000   6.5740000   4.5180000   9.4170000
  33.1290000  30.0140000   3.4860000  33.8300000  29.3930000   3.2870000
  33.1330000  30.6230000   2.7470000   8.3880000  42.6320000  30.4280000
   8.1980000  43.2690000  29.7390000   7.6570000  42.0150000  30.3930000
  16.1740000  16.6610000  36.3730000  16.9490000  16.1050000  36.2870000
  16.1150000  17.1210000  35.5350000  25.1970000   5.4140000  30.4870000
  24.5930000   4.9880000  31.0940000  25.2040000   4.8460000  29.7170000
  33.3540000  42.9950000  25.8770000  32.4230000  43.0090000  25.6570000
  33.3910000  42.5730000  26.7350000  23.5520000   6.0230000  24.7940000
  22.9220000   5.9740000  24.0750000  23.4350000   5.2020000  25.2720000
  39.3270000  36.2990000  32.5730000  38.6170000  35.7550000  32.2310000
  40.1090000  35.7540000  32.4860000   4.2710000  20.9030000   8.5650000
   4.9930000  20.3540000   8.2590000   4.0900000  20.5900000   9.4510000
  19.4700000  19.5990000  28.0920000  20.1720000  19.0140000  28.3770000
  19.2670000  20.1250000  28.8660000  26.5160000  14.0290000  23.2690000
  26.1230000  13.5110000  23.9710000  27.4440000  13.7980000  23.2920000
   4.6550000  24.4970000  30.8380000   5.3220000  23.9480000  31.2510000
   3.8950000  23.9230000  30.7460000   9.1890000   4.6450000  25.9230000
   8.2640000   4.8630000  25.8120000   9.2430000   3.7130000  25.7090000
  18.0850000  31.2420000   3.9790000  17.9270000  31.0090000   4.8940000
  19.0310000  31.3810000   3.9280000  27.4030000  12.0800000  37.7290000
  28.1000000  11.6510000  37.2330000  27.7900000  12.9050000  38.0210000
  38.7370000   3.4870000  34.0540000  38.4200000   4.1420000  33.4320000
  38.9540000   3.9880000  34.8400000  39.7870000  29.7030000  14.0620000
  39.6860000  28.8810000  13.5820000  39.2310000  29.5990000  14.8340000
  31.8240000  17.3510000  17.2360000  30.9390000  17.0200000  17.3940000
  32.2450000  16.6670000  16.7150000  20.7380000   1.5530000  32.6700000
  19.9130000   1.3030000  33.0850000  21.4130000   1.2340000  33.2680000
   1.2170000  30.4830000  11.4120000   1.2200000  31.3200000  10.9470000
   1.1000000  29.8280000  10.7240000  10.8800000  31.9560000   3.4780000
  10.0400000  31.8290000   3.0360000  11.3970000  31.1890000   3.2350000
  20.2960000  37.7740000  22.7210000  20.1100000  38.7060000  22.8390000
  19.4480000  37.3860000  22.5050000  34.3030000  23.3520000  22.0190000
  34.3130000  24.2360000  22.3840000  35.1230000  23.2860000  21.5290000
  36.4150000  26.2080000  30.5460000  37.3140000  26.1940000  30.8740000
  35.8870000  25.8910000  31.2790000  27.2560000   1.2270000  16.9900000
  26.4360000   1.7220000  16.9690000  27.9380000   1.8970000  17.0450000
   5.4850000  16.1140000  14.5700000   6.3660000  16.4880000  14.5790000
   5.0630000  16.5140000  13.8100000  33.9660000  11.1500000  41.7050000
  34.5820000  11.0230000  42.4270000  34.2660000  10.5480000  41.0250000
  18.5780000  15.9980000   2.7480000  18.0630000  15.2590000   2.4250000
  18.0630000  16.3500000   3.4740000   7.6180000   6.5830000  38.9710000
   7.3750000   6.8070000  38.0730000   8.5500000   6.3700000  38.9200000
  29.5620000  21.0980000  36.5090000  28.9320000  21.0150000  35.7930000
  29.3530000  21.9380000  36.9170000  16.7160000  14.2980000   1.7250000
  16.3660000  13.4190000   1.5790000  16.1250000  14.6870000   2.3700000
  21.9260000  32.2010000  35.2920000  21.9930000  32.4840000  34.3800000
  21.2710000  31.5030000  35.2780000   4.8490000   9.7370000  23.8490000
   5.4920000   9.6770000  23.1420000   4.1760000   9.0980000  23.6160000
  12.9930000  29.2320000  36.6090000  13.4800000  29.8200000  36.0320000
  13.4420000  29.2990000  37.4520000  16.3960000  36.3390000  12.8050000
  16.3880000  35.8910000  13.6510000  17.2790000  36.1940000  12.4660000
  35.5260000  28.5890000   1.6060000  36.1170000  29.3060000   1.3750000
  34.9270000  28.5230000   0.8630000  32.5860000  29.3060000  29.9760000
  32.9160000  29.0620000  29.1110000  32.4980000  28.4740000  30.4410000
  15.1230000  15.5050000   3.8290000  14.3580000  15.3150000   4.3720000
  15.8560000  15.1100000   4.3010000   9.7470000  14.0960000  18.1660000
   9.8530000  14.0170000  19.1140000  10.0610000  14.9770000  17.9620000
   8.4840000  40.2360000  40.0760000   8.0680000  39.3980000  40.2820000
   7.9070000  40.8920000  40.4670000  22.4290000  38.1710000  17.7020000
  22.0340000  37.4500000  18.1910000  21.6920000  38.5970000  17.2650000
  28.9730000  11.6080000  12.1260000  29.6260000  11.3090000  12.7590000
  28.1320000  11.4140000  12.5400000  20.9900000  26.2280000   9.9760000
  21.3100000  26.8710000   9.3440000  20.9060000  25.4180000   9.4730000
  31.5660000   5.2040000  31.6130000  30.7140000   4.9150000  31.2850000
  31.3560000   5.7820000  32.3470000  12.8060000   2.3120000   4.9470000
  12.9260000   1.7220000   4.2030000  13.1810000   1.8400000   5.6910000
  42.1480000   3.5370000  29.6920000  42.2550000   4.4610000  29.4650000
  41.2080000   3.3780000  29.6140000  18.2630000  18.7450000  25.7470000
  17.7570000  18.1720000  26.3220000  18.6570000  19.3880000  26.3360000
  22.0100000  20.0810000   0.4160000  21.8790000  19.9320000  -0.5210000
  21.8450000  19.2280000   0.8180000  32.2210000  43.4510000  12.7730000
  32.5200000  44.3510000  12.6420000  32.5380000  43.2180000  13.6460000
  37.4400000  28.8920000  30.6380000  36.9160000  28.5680000  29.9050000
  37.4030000  28.1900000  31.2880000  38.3330000  10.1810000   5.1190000
  39.0080000  10.0360000   5.7820000  38.7130000  10.8300000   4.5280000
  40.8260000  16.4460000   3.2160000  40.4540000  17.3250000   3.1430000
  41.7030000  16.5860000   3.5730000   2.1910000  27.9950000  35.8510000
   1.8780000  27.5670000  36.6470000   2.8920000  28.5750000  36.1500000
  26.6810000   4.1510000   1.0600000  27.3820000   3.5730000   0.7580000
  26.6070000   4.8160000   0.3760000  17.4130000  26.3360000   8.7090000
  16.8040000  25.7710000   8.2330000  18.2760000  26.0890000   8.3780000
  19.5310000   4.5750000   4.3960000  19.9690000   4.8450000   3.5880000
  18.5980000   4.6600000   4.2020000  37.8140000  39.7040000  22.2160000
  38.4700000  39.3540000  21.6130000  38.2590000  39.7340000  23.0630000
  36.0190000  14.3720000  23.2380000  36.9210000  14.6820000  23.3150000
  35.4880000  15.0940000  23.5750000   8.7180000   1.6880000  36.6420000
   9.6670000   1.5610000  36.6430000   8.3970000   1.1020000  37.3280000
  44.1620000  14.0220000  17.4200000  43.5940000  13.7780000  16.6890000
  43.8440000  13.4980000  18.1550000  41.5190000  19.8720000  19.9870000
  42.3400000  19.3800000  19.9560000  40.9250000  19.3830000  19.4160000
   2.5520000  13.2160000  34.8610000   1.7580000  13.5240000  34.4240000
   3.1600000  13.9520000  34.8020000  24.9100000   0.4420000  32.4110000
  24.5210000  -0.3800000  32.1130000  24.3990000   0.6820000  33.1840000
  45.0360000   8.9720000   9.3070000  44.9540000   8.0340000   9.1360000
  44.2830000   9.1820000   9.8590000   9.9160000   4.4900000  39.3760000
  10.3730000   3.6620000  39.5240000   9.5560000   4.4110000  38.4930000
   0.4720000  27.0410000  39.7870000  -0.0620000  26.3890000  39.3330000
   1.3680000  26.8570000  39.5040000   3.9770000  37.1200000  19.1570000
   4.7580000  37.1840000  18.6060000   4.1600000  37.6980000  19.8980000
  32.0170000  34.1890000   7.2130000  32.9360000  34.4560000   7.2050000
  31.8970000  33.7200000   6.3870000  40.0370000  13.3490000   6.5630000
  40.9620000  13.5910000   6.5170000  39.7190000  13.4460000   5.6650000
  13.7270000  11.4330000  38.5040000  13.3320000  11.4250000  37.6320000
  14.6700000  11.4230000  38.3400000   1.0390000  35.9020000   3.3390000
   0.4980000  35.2370000   2.9140000   0.4150000  36.4510000   3.8140000
  11.1750000   6.4230000  25.8190000  10.5500000   5.8260000  26.2300000
  10.6400000   6.9810000  25.2560000  36.9230000  10.0780000  38.5620000
  37.5290000  10.7650000  38.8410000  37.2780000   9.2760000  38.9460000
  26.3800000  30.9940000  41.2830000  26.3300000  31.8010000  41.7950000
  26.2890000  31.2810000  40.3750000  31.0840000  21.7140000  30.0700000
  30.5820000  20.9000000  30.1000000  30.5350000  22.3160000  29.5680000
  41.5870000  24.3840000  39.0010000  41.0110000  23.9580000  39.6360000
  41.7600000  25.2470000  39.3770000  43.2280000  39.3630000   9.8520000
  42.7560000  38.7720000   9.2650000  43.9230000  39.7340000   9.3090000
   1.8680000  25.3750000  37.4990000   2.0600000  25.2230000  38.4250000
   1.6270000  24.5130000  37.1600000  38.8080000  10.7250000  35.4910000
  38.0660000  11.2400000  35.8090000  39.5710000  11.1190000  35.9130000
   1.8170000   4.0140000  15.4020000   1.7270000   4.9290000  15.1350000
   1.2510000   3.9320000  16.1700000  33.0490000  11.8020000  20.0220000
  33.1130000  11.9990000  19.0880000  33.7080000  12.3640000  20.4310000
  24.2510000  23.5500000  27.7320000  23.8650000  22.6790000  27.6410000
  23.7810000  23.9450000  28.4660000  44.9380000  23.6420000  33.2030000
  45.1890000  24.0890000  32.3950000  44.7710000  22.7380000  32.9350000
  10.3570000  28.1750000   0.5110000  11.0270000  27.5730000   0.1880000
  10.3450000  28.8860000  -0.1310000  24.1310000  28.8250000  21.9860000
  24.1520000  28.5360000  21.0740000  24.0960000  29.7800000  21.9350000
   1.9930000  18.7660000  37.1790000   1.9890000  19.1060000  38.0740000
   2.2980000  17.8630000  37.2690000  26.4810000  42.4760000   7.5040000
  26.8290000  41.8560000   8.1450000  26.3880000  41.9640000   6.7010000
  18.3870000   0.6320000  34.0090000  18.3860000  -0.2730000  33.6960000
  17.5890000   0.7050000  34.5320000  39.7600000  38.8440000  40.9200000
  40.1980000  37.9930000  40.9440000  40.1130000  39.2730000  40.1410000
   4.0710000  17.1130000  41.2660000   4.7190000  16.7300000  40.6750000
   3.4060000  16.4320000  41.3670000  30.9580000  43.5090000  41.2990000
  31.8260000  43.3520000  41.6700000  30.5470000  42.6440000  41.2790000
   5.9930000  41.9880000  25.9510000   6.8350000  41.5350000  25.9060000
   5.4220000  41.3850000  26.4280000  21.5880000  19.7490000   9.4010000
  21.2560000  20.6080000   9.6620000  21.3570000  19.6740000   8.4750000
  39.4490000  23.4700000   5.8930000  39.2880000  23.7200000   6.8030000
  38.6240000  23.6560000   5.4440000  21.0370000   3.0770000  21.0960000
  20.1860000   2.6450000  21.0230000  21.4750000   2.6240000  21.8170000
  12.5410000  30.9400000  25.9910000  11.8760000  31.5300000  25.6380000
  12.7110000  31.2700000  26.8730000  34.3410000  24.0650000  32.2850000
  34.8230000  23.5350000  32.9210000  33.6430000  24.4750000  32.7960000
   7.6850000  17.1240000  29.2790000   7.6670000  16.2160000  28.9740000
   8.0640000  17.6140000  28.5490000   5.8150000  30.5770000   3.0450000
   5.5050000  29.6770000   3.1410000   5.0430000  31.1170000   3.2130000
  34.5160000  29.6120000   6.8120000  33.9040000  29.2080000   6.1970000
  34.7220000  30.4610000   6.4220000  22.3360000  16.2720000   7.7610000
  22.6730000  15.3930000   7.5880000  21.7260000  16.1560000   8.4890000
   7.7130000   0.9540000  28.9690000   7.8360000   1.7780000  28.4980000
   6.8200000   1.0040000  29.3100000  27.0170000  20.6540000  35.2350000
  26.1200000  20.8030000  34.9370000  26.9430000  19.9450000  35.8740000
  34.9310000   1.9690000   4.5010000  35.6210000   1.3410000   4.7160000
  34.1560000   1.6390000   4.9570000  21.7680000  11.4090000  20.1500000
  21.3980000  11.8860000  19.4080000  22.0100000  10.5560000  19.7910000
  45.0990000  39.8380000   4.2740000  45.5170000  39.4520000   3.5050000
  44.5640000  39.1310000   4.6360000  12.3070000  14.9660000   2.0930000
  13.0740000  15.2700000   1.6070000  11.5910000  15.5190000   1.7810000
  19.6940000  21.4480000  30.6610000  19.4450000  21.6580000  31.5610000
  20.6090000  21.1710000  30.7240000  17.8570000   1.2890000  30.8300000
  18.2600000   1.3470000  29.9640000  17.7410000   0.3510000  30.9780000
  11.0720000   3.5160000  10.2780000  11.5730000   4.3310000  10.3100000
  10.8300000   3.3480000  11.1880000   2.9670000   8.7200000  41.3200000
   3.9000000   8.6400000  41.1180000   2.9310000   9.3550000  42.0360000
  16.3680000   0.6800000  18.8820000  15.8220000  -0.1020000  18.7970000
  16.6190000   0.8960000  17.9840000  28.8490000  41.9790000  16.9550000
  29.2230000  42.8040000  17.2630000  28.1430000  42.2420000  16.3640000
  43.0020000  20.9870000  35.2800000  42.6250000  21.6450000  35.8650000
  42.5850000  20.1670000  35.5430000  25.8620000  30.2130000  12.2880000
  26.7870000  30.0080000  12.1550000  25.5690000  29.5850000  12.9490000
  17.0800000  34.0730000  24.4960000  16.2370000  33.7570000  24.8200000
  16.8850000  34.4310000  23.6300000  29.6610000  31.7450000  34.8620000
  30.5470000  32.0480000  34.6610000  29.4720000  32.1130000  35.7250000
   0.8550000  28.2940000  14.1870000   0.9880000  28.6000000  15.0850000
   1.1560000  29.0200000  13.6410000  32.9320000  33.9500000   2.2940000
  32.5940000  34.5670000   1.6450000  33.7090000  34.3790000   2.6510000
   3.6750000  27.6370000   0.5530000   3.7220000  26.6850000   0.6410000
   4.0110000  27.9710000   1.3840000  37.6280000  31.2200000  33.2580000
  37.3290000  31.2050000  32.3490000  37.7780000  30.2990000  33.4750000
  38.2940000  38.5210000  30.4510000  38.0480000  38.7980000  31.3340000
  37.7000000  37.7980000  30.2520000  43.0730000  27.2290000  26.9020000
  42.6030000  26.7080000  26.2510000  43.5750000  27.8610000  26.3860000
  18.6380000  24.6950000  14.8810000  19.3600000  24.0770000  14.9950000
  17.8500000  24.1530000  14.9250000   8.7990000  15.6790000  23.2830000
   8.0430000  15.0960000  23.3580000   8.4390000  16.5570000  23.4060000
  26.5320000  20.9180000   0.8230000  26.5580000  21.3260000   1.6880000
  26.2130000  20.0300000   0.9860000  44.9480000  18.0660000  35.1730000
  44.1350000  18.0890000  35.6770000  45.5320000  18.6680000  35.6320000
  14.1200000  29.7760000  16.5610000  14.8000000  29.6820000  17.2280000
  13.4790000  30.3680000  16.9550000  26.1750000   1.1580000  14.2190000
  26.6220000   1.3870000  13.4040000  26.8210000   1.3310000  14.9040000
  20.4110000  40.5360000   6.1660000  19.9120000  41.2340000   6.5900000
  19.7670000  40.0720000   5.6300000  27.7390000  37.4890000   3.9870000
  27.7160000  37.4930000   3.0300000  27.0360000  38.0840000   4.2460000
   2.7670000  10.1310000   1.4100000   2.9170000   9.7170000   2.2590000
   2.0900000  10.7860000   1.5790000  38.0120000  23.5380000  26.8220000
  37.4770000  22.9130000  27.3110000  38.9140000  23.2890000  27.0210000
   1.2350000  35.7170000  38.6190000   0.6340000  35.0900000  38.2180000
   2.0600000  35.5920000  38.1510000  18.2390000  32.5690000  32.8870000
  18.8320000  31.8210000  32.9540000  18.4960000  33.1440000  33.6080000
  35.0030000  27.2310000   8.3800000  34.3730000  26.5450000   8.1570000
  34.9260000  27.8670000   7.6700000  33.4630000   9.3170000  12.4240000
  32.9750000   9.6250000  11.6610000  34.0810000   8.6760000  12.0710000
  43.7100000   6.0950000   4.1860000  42.9800000   5.4770000   4.2330000
  43.3910000   6.8770000   4.6360000   7.7460000  40.6410000  15.1690000
   7.4610000  40.4610000  14.2730000   8.4410000  41.2930000  15.0740000
  18.4470000  40.5290000  18.4760000  19.1320000  41.1710000  18.6610000
  17.8580000  40.9740000  17.8670000  44.4510000  15.0120000  31.5810000
  43.6320000  15.1410000  32.0580000  44.8330000  14.2250000  31.9700000
  34.9210000   8.6920000  28.0230000  35.6580000   8.3190000  27.5390000
  34.9400000   9.6240000  27.8080000  22.5080000   7.2570000  40.3380000
  22.9910000   8.0710000  40.4780000  21.7290000   7.5220000  39.8490000
  43.5670000  42.5640000  24.3560000  43.2570000  43.4090000  24.6830000
  44.4450000  42.7450000  24.0210000  25.9160000  19.8500000  26.4600000
  26.5920000  20.5030000  26.6420000  25.1050000  20.2530000  26.7670000
   1.3640000  30.5000000  37.4820000   2.2220000  30.9200000  37.5450000
   0.8210000  30.9710000  38.1150000  25.9510000  29.0980000  32.5610000
  25.1300000  29.5550000  32.3800000  26.3870000  29.6390000  33.2200000
  18.4020000  12.0210000  23.8100000  18.6100000  12.8790000  24.1790000
  17.7410000  11.6600000  24.4010000  43.2340000  30.4950000  27.2240000
  43.0430000  29.9620000  27.9950000  42.3730000  30.7230000  26.8720000
  39.7250000  41.6460000   1.2820000  39.9360000  42.2140000   2.0230000
  40.1280000  42.0760000   0.5280000  12.5540000  28.1960000  20.3370000
  12.0590000  28.9930000  20.5260000  12.2600000  27.9320000  19.4660000
  45.3610000  36.5570000  31.4030000  45.4470000  37.3640000  31.9100000
  44.5510000  36.6720000  30.9060000   3.9240000  18.2740000  13.6930000
   4.1860000  19.1240000  14.0480000   4.3030000  18.2550000  12.8140000
  33.9040000   3.7180000  21.2730000  33.8360000   4.4770000  21.8540000
  34.8040000   3.4110000  21.3870000  10.5550000  41.1420000  38.6150000
  11.3180000  41.1760000  39.1920000   9.8800000  40.7090000  39.1380000
   1.6140000  37.8170000  18.2880000   1.9540000  38.7070000  18.1960000
   2.3670000  37.3020000  18.5800000   1.8580000  17.4880000   9.3870000
   1.2240000  17.4760000   8.6700000   2.7020000  17.3300000   8.9630000
  26.7320000  40.2040000  28.3410000  26.5040000  39.3340000  28.0120000
  27.5900000  40.0880000  28.7500000  31.7660000   2.3490000  24.9150000
  32.1300000   2.3110000  24.0300000  31.5320000   1.4430000  25.1170000
   9.0470000  42.5210000  19.5770000   9.7850000  41.9170000  19.6620000
   8.9220000  42.8720000  20.4580000  23.8010000  38.2620000  12.0520000
  23.5940000  38.6720000  12.8910000  24.7100000  38.5090000  11.8830000
  14.2080000  39.5080000   4.3320000  14.8210000  39.1440000   4.9710000
  14.3660000  39.0040000   3.5340000  28.8570000  18.4990000  -0.0630000
  29.5800000  18.3820000   0.5540000  28.0740000  18.5190000   0.4870000
   8.1660000  18.4040000   6.0040000   8.5400000  18.0720000   6.8200000
   7.8670000  17.6200000   5.5420000  43.4160000  35.2270000   5.2050000
  43.3660000  34.8960000   6.1020000  43.5800000  34.4490000   4.6720000
   6.8170000  33.1690000  19.4880000   6.3420000  32.3560000  19.3120000
   6.1850000  33.8620000  19.2960000  10.7210000  30.4640000  12.5960000
  11.3150000  31.2040000  12.4690000  10.5830000  30.1140000  11.7160000
  45.3190000   3.4340000  12.0820000  44.6050000   3.5480000  12.7100000
  45.8900000   2.7800000  12.4850000  27.6650000  42.7960000  28.9750000
  27.0030000  43.2540000  29.4930000  27.2540000  41.9640000  28.7430000
  14.5080000   0.6990000   0.4590000  13.5740000   0.7810000   0.2690000
  14.5610000   0.7240000   1.4150000  39.4970000  17.4960000   6.3370000
  39.0360000  18.0270000   6.9860000  39.0360000  16.6570000   6.3430000
  16.6910000  10.9510000  28.1300000  15.8260000  10.5770000  27.9630000
  16.9750000  11.2870000  27.2800000   2.8590000  22.4230000  28.7340000
   2.7040000  23.3670000  28.7720000   3.0410000  22.1740000  29.6400000
  24.4440000  17.7570000   1.1780000  23.5430000  17.9540000   1.4330000
  24.4200000  16.8390000   0.9050000  40.9270000  10.8150000   6.1030000
  41.6610000  10.4740000   6.6150000  40.7990000  11.7050000   6.4310000
  15.2400000  27.8790000  20.6640000  15.4280000  28.4870000  21.3780000
  14.2880000  27.7730000  20.6840000  10.4050000  23.7490000  15.0620000
  10.5390000  23.8610000  16.0030000  11.1610000  23.2390000  14.7720000
  11.9460000  40.1740000  14.7780000  12.7220000  40.7150000  14.9240000
  12.2930000  39.3300000  14.4890000  32.0910000   8.5910000  36.5820000
  31.7890000   8.5240000  35.6760000  32.0490000   9.5270000  36.7800000
   4.1950000  34.2320000  19.5740000   4.0590000  35.0500000  19.0970000
   3.3190000  33.8550000  19.6580000  24.1610000  36.3650000  26.5700000
  23.4090000  36.0310000  26.0810000  24.7850000  36.6340000  25.8960000
  14.4640000   6.3170000   7.5200000  13.5870000   6.4740000   7.1700000
  14.9100000   5.8210000   6.8340000  30.1440000  22.2500000   8.2290000
  30.2390000  21.5080000   7.6310000  29.5860000  21.9190000   8.9330000
  32.3960000  27.1400000  31.6050000  31.4670000  26.9070000  31.5990000
  32.7640000  26.6390000  32.3320000   1.5440000  33.6390000  34.2260000
   1.1970000  33.5440000  33.3390000   2.4220000  33.2600000  34.1810000
   7.7730000  34.6360000  25.3840000   7.4540000  35.4770000  25.7120000
   7.3680000  33.9860000  25.9580000  30.3800000  29.0750000   4.1390000
  30.0790000  28.4900000   4.8350000  31.3030000  29.2280000   4.3380000
   1.3890000   7.4130000  32.0810000   2.1970000   7.9080000  31.9440000
   0.9250000   7.4760000  31.2470000  43.4030000  37.8880000   5.3120000
  43.3260000  36.9570000   5.1030000  43.7600000  37.9050000   6.2000000
  44.5040000  21.6290000   4.4410000  44.1520000  22.3570000   3.9300000
  44.3810000  21.8950000   5.3530000  19.7800000  15.5940000   9.4960000
  18.9010000  15.9690000   9.4510000  19.7680000  15.0470000  10.2810000
  28.6560000   5.6070000  15.4350000  28.4530000   6.3670000  14.8890000
  28.6190000   5.9400000  16.3320000  44.3300000   6.8190000  11.8520000
  44.7600000   6.0660000  11.4470000  44.4030000   6.6590000  12.7930000
  13.8280000   5.9990000  15.8410000  13.1440000   5.3300000  15.8080000
  14.5680000   5.6070000  15.3770000  35.0050000  42.0390000  28.1580000
  35.4700000  41.5760000  27.4610000  35.4760000  41.8030000  28.9580000
   7.7260000   0.2410000  34.5220000   8.4730000   0.2770000  33.9250000
   7.8710000   0.9650000  35.1310000  39.9200000  27.8740000  22.8850000
  40.0930000  28.5320000  22.2120000  39.5080000  28.3620000  23.5980000
  22.7170000  33.4450000   6.2440000  22.1190000  33.9070000   6.8300000
  22.5860000  32.5190000   6.4490000  11.0920000  40.9850000  32.5330000
  11.4660000  40.8130000  31.6680000  10.2600000  40.5110000  32.5320000
   2.1050000  16.1110000  13.4380000   2.6570000  16.8830000  13.3190000
   1.2370000  16.4640000  13.6320000  36.5480000  28.0440000  14.0150000
  36.9140000  28.5000000  14.7730000  35.9420000  28.6740000  13.6260000
  25.5460000  34.9280000   8.5950000  26.4600000  34.9040000   8.8780000
  25.5630000  35.4190000   7.7730000  30.2520000   9.5340000  30.0260000
  30.5840000  10.3170000  29.5850000  30.8270000   8.8300000  29.7270000
   6.5840000   1.0330000  25.4040000   6.3330000   0.1620000  25.7090000
   6.1700000   1.6330000  26.0230000  28.7590000   7.8140000  36.5580000
  29.5290000   7.3630000  36.9060000  28.4930000   7.2860000  35.8060000
   7.6300000  39.5260000  17.7170000   7.7590000  39.8860000  16.8390000
   6.7340000  39.1890000  17.7080000   0.6000000   8.2760000  40.0080000
   1.3910000   8.5930000  40.4430000  -0.1060000   8.4700000  40.6240000
  34.9130000  13.3890000  39.1460000  35.6470000  13.9610000  38.9210000
  35.1450000  13.0260000  40.0010000   9.3440000  39.7060000  29.1150000
   9.4310000  38.7580000  29.2150000   8.4850000  39.9090000  29.4870000
  20.2760000  37.6240000   6.6870000  21.2210000  37.7160000   6.8100000
  20.1720000  37.4510000   5.7520000  35.1000000  36.0710000  28.7390000
  34.8430000  35.4700000  28.0400000  35.9840000  36.3510000  28.5000000
  25.3150000   7.0970000  18.0040000  25.2400000   6.3300000  18.5710000
  24.7070000   6.9250000  17.2850000  22.3580000  16.3290000  31.1290000
  22.4330000  15.4950000  30.6640000  22.9940000  16.2640000  31.8410000
  44.6030000  35.5740000  41.0160000  44.4090000  36.5040000  40.8950000
  45.4130000  35.4330000  40.5260000  39.3790000  17.9270000  35.3230000
  38.8080000  18.6950000  35.3580000  39.0890000  17.4470000  34.5480000
  16.2410000  26.4100000  14.7630000  15.7060000  27.1400000  14.4510000
  15.6130000  25.8000000  15.1490000  34.9490000  34.7900000  25.4520000
  34.1280000  35.2280000  25.6730000  35.0560000  34.1250000  26.1310000
  23.1730000  15.0520000  42.0440000  24.1050000  14.8770000  42.1780000
  22.7300000  14.4690000  42.6610000  24.8540000  41.3900000  38.0420000
  24.3790000  41.7700000  38.7820000  25.7420000  41.7370000  38.1240000
  31.5550000   5.4710000  28.2560000  31.5380000   6.3310000  28.6760000
  32.4740000   5.2050000  28.2940000   6.9540000   9.0140000  31.5170000
   7.1160000   9.9570000  31.5630000   7.2330000   8.7660000  30.6360000
  12.9540000   4.0140000  28.7360000  13.1220000   4.3490000  29.6170000
  12.0020000   3.9170000  28.6950000  17.3900000   3.2160000  42.3430000
  16.8540000   3.9030000  42.7390000  17.4450000   3.4570000  41.4190000
  24.1770000   6.9580000  11.0650000  24.5840000   6.3490000  10.4500000
  24.7610000   7.7160000  11.0740000  39.4390000  32.1310000   9.8130000
  40.1340000  32.3440000  10.4360000  39.5500000  31.1960000   9.6400000
  24.0910000  24.8020000  38.5010000  23.5480000  24.3390000  37.8630000
  24.6780000  24.1300000  38.8490000  11.7230000   6.4780000   0.3930000
  10.9640000   7.0370000   0.2270000  12.1850000   6.4450000  -0.4440000
  27.1440000  10.7570000   5.9790000  28.0270000  10.4020000   5.8800000
  26.6540000  10.3890000   5.2440000  34.8950000   7.0450000  31.2260000
  35.6860000   7.1830000  30.7050000  34.6830000   6.1200000  31.1000000
  36.7950000  31.2230000   2.0070000  36.8680000  30.6840000   2.7940000
  37.3810000  30.8040000   1.3760000   6.9780000  16.3220000   4.3740000
   7.7070000  15.7100000   4.2730000   6.7530000  16.5760000   3.4790000
  30.7320000  29.5380000  11.0290000  31.6800000  29.5220000  10.8970000
  30.5110000  30.4690000  11.0590000   8.6860000  14.2750000  29.0510000
   8.5380000  14.3400000  28.1070000   8.8630000  13.3470000  29.2020000
  37.9570000  22.7380000  34.2260000  38.9060000  22.7420000  34.3540000
  37.6100000  23.1860000  34.9970000  19.9150000  25.4610000   7.5110000
  20.6160000  25.1010000   6.9670000  19.7670000  26.3390000   7.1590000
  42.7050000  11.0220000  30.8190000  43.2220000  11.0470000  30.0140000
  43.2910000  10.6330000  31.4680000  31.3820000  40.9810000  23.4740000
  31.0540000  41.8360000  23.7520000  31.4210000  41.0390000  22.5190000
   9.1520000  22.2930000  32.2140000   9.3810000  22.5090000  33.1180000
   9.8520000  21.7090000  31.9230000   5.5790000  18.1640000  30.7820000
   6.2360000  18.0010000  30.1050000   5.1860000  17.3060000  30.9460000
  18.0220000  -0.0460000  38.7960000  18.6910000   0.5960000  38.5610000
  18.1390000  -0.1810000  39.7370000   5.6490000  26.8780000  34.4720000
   5.0390000  26.7040000  35.1890000   6.4070000  26.3260000  34.6640000
  32.9370000  28.0140000  13.4260000  32.7420000  27.1180000  13.1510000
  33.5650000  28.3320000  12.7760000  28.2000000  26.0830000  19.3410000
  28.1390000  26.7640000  18.6710000  27.2920000  25.8260000  19.5050000
  41.2000000  36.6860000  39.9930000  40.8060000  37.0170000  39.1860000
  41.4070000  35.7720000  39.8020000  23.7730000  20.8840000  28.2850000
  23.0840000  20.7850000  28.9420000  24.5230000  21.2220000  28.7750000
   7.6610000   3.4200000  30.6060000   6.9820000   3.3030000  31.2710000
   7.9820000   2.5350000  30.4330000  13.4300000   7.0820000  21.2040000
  14.3430000   6.8960000  20.9830000  13.4230000   7.1500000  22.1580000
  40.4150000   6.8850000   3.4770000  40.9050000   7.6920000   3.6360000
  39.9970000   7.0220000   2.6270000   0.8840000  42.5880000  35.5130000
   0.8150000  43.5330000  35.6510000   1.1820000  42.2440000  36.3550000
   2.1890000  12.7140000   6.3910000   2.2320000  12.5670000   7.3360000
   3.0980000  12.6530000   6.0970000  13.4000000   6.3130000   2.9380000
  13.3350000   7.2670000   2.8950000  12.5750000   6.0000000   2.5670000
   2.2640000  33.6550000  29.5710000   1.5560000  34.0500000  29.0620000
   2.4090000  34.2660000  30.2940000  36.5410000  33.7200000  22.4260000
  35.5850000  33.7730000  22.4160000  36.7620000  33.2350000  21.6310000
  33.4840000  16.1280000   3.4240000  32.9990000  15.9110000   4.2200000
  34.1430000  15.4370000   3.3490000  32.0090000   3.4820000  37.6670000
  31.7630000   2.5570000  37.6460000  31.8750000   3.7860000  36.7700000
  23.4410000  26.3020000  18.0290000  22.5680000  26.2030000  18.4080000
  23.2790000  26.5660000  17.1230000  32.4870000  31.6090000   8.7300000
  32.2110000  32.3110000   8.1420000  31.8880000  30.8870000   8.5390000
  38.5530000   2.9960000  15.2550000  37.9750000   3.3480000  14.5790000
  38.2080000   2.1210000  15.4340000  13.5690000  30.9800000   8.0690000
  13.6280000  31.8230000   8.5180000  14.2930000  30.4660000   8.4280000
  43.0670000  23.8170000   3.2900000  42.1330000  24.0120000   3.2250000
  43.4670000  24.6440000   3.5610000  32.9090000   6.2860000   2.4710000
  33.1730000   5.4060000   2.2040000  33.4600000   6.4830000   3.2280000
   7.5610000   9.3920000  22.5710000   7.5120000   8.5510000  23.0250000
   8.4370000   9.7210000  22.7700000  33.0480000  23.8460000  28.5940000
  32.5190000  24.5590000  28.2350000  33.2990000  23.3260000  27.8300000
  40.6710000  42.2430000  35.8070000  41.3480000  42.5750000  35.2170000
  41.0820000  41.5000000  36.2500000  36.0140000  32.9710000  27.1500000
  36.9200000  32.8490000  27.4330000  35.4940000  32.5030000  27.8030000
  29.0290000   9.9990000  23.5580000  28.1480000   9.7840000  23.8660000
  29.0970000   9.5660000  22.7070000  14.7210000   6.0820000  29.9220000
  14.3630000   5.8170000  29.0750000  14.8310000   5.2620000  30.4040000
  27.2170000  25.1350000  29.4610000  27.2130000  25.2960000  30.4040000
  27.3150000  26.0030000  29.0700000  11.6520000  23.6100000   6.8960000
  12.0260000  23.7940000   7.7570000  12.4020000  23.3540000   6.3590000
  24.9380000  32.5480000  13.9280000  24.0720000  32.8420000  13.6470000
  25.1840000  31.8820000  13.2870000   9.0460000  14.5580000   3.2940000
   9.2390000  14.6010000   2.3580000   9.3220000  13.6800000   3.5560000
  11.6540000   6.4860000  39.7830000  12.5600000   6.1800000  39.7480000
  11.1320000   5.6840000  39.8190000  18.5280000  33.8640000  35.3970000
  19.0400000  34.6680000  35.3020000  18.3940000  33.7760000  36.3400000
  28.4510000  34.7680000  13.1680000  28.8570000  35.1450000  12.3870000
  27.6850000  34.3000000  12.8370000  44.0990000  40.7240000  29.9640000
  43.2830000  40.9530000  29.5190000  44.2680000  39.8190000  29.7040000
   9.7940000  33.8940000  15.2160000  10.0610000  34.5400000  14.5630000
   9.0160000  33.4810000  14.8410000  10.9060000  35.9270000  16.8670000
  10.5530000  36.0230000  17.7520000  10.3440000  35.2710000  16.4550000
  44.2810000   5.8290000  39.8390000  44.5360000   6.6170000  40.3190000
  44.4100000   5.1160000  40.4650000   6.6090000  41.8590000  37.7480000
   7.0800000  41.9450000  38.5770000   5.8230000  41.3600000  37.9690000
  30.0750000  32.0940000  11.3400000  30.4570000  32.0560000  12.2170000
  30.5380000  32.8120000  10.9090000  25.7530000  14.4390000   0.0960000
  26.1270000  14.8570000  -0.6790000  26.5060000  14.2640000   0.6610000
   1.7330000  10.1270000  10.5660000   2.3650000   9.4970000  10.2180000
   0.9090000   9.9030000  10.1340000  41.8210000  28.7140000  29.0350000
  42.5130000  28.5140000  29.6660000  42.0490000  28.2020000  28.2590000
  16.0260000  34.3040000  41.6410000  16.9520000  34.2000000  41.8600000
  15.6090000  33.5140000  41.9850000  38.9760000  28.0460000  39.7900000
  38.5700000  28.9030000  39.9200000  39.8010000  28.2380000  39.3440000
  11.7070000  35.4240000  34.9240000  12.6500000  35.5510000  34.8220000
  11.3900000  36.2560000  35.2760000  11.9230000  29.4170000   2.4960000
  12.8430000  29.1790000   2.3830000  11.4700000  28.9670000   1.7840000
  29.3940000  20.0340000  10.7670000  28.8720000  19.5360000  10.1380000
  29.4760000  19.4550000  11.5240000  26.4770000  37.3660000  28.2150000
  25.6420000  37.2430000  27.7660000  27.1120000  36.8960000  27.6740000
  40.4710000  26.2380000   4.6570000  41.0300000  25.7670000   5.2750000
  40.3330000  25.6190000   3.9400000  40.7440000  12.8330000  13.0460000
  41.4410000  13.0170000  12.4160000  41.1210000  13.0670000  13.8950000
   8.8280000  26.2060000   3.8180000   8.3380000  26.8730000   3.3380000
   9.0960000  26.6410000   4.6270000  42.2220000  38.4450000  12.2300000
  42.9560000  38.1680000  12.7790000  42.6300000  38.7500000  11.4200000
  41.0010000   0.7080000  12.0830000  41.5350000   0.1780000  11.4920000
  40.6530000   0.0820000  12.7180000  10.9810000  34.9970000   0.2500000
  10.0560000  35.1840000   0.4090000  11.4010000  35.1280000   1.1000000
  21.4130000  31.6540000  14.2110000  22.0380000  31.4950000  14.9180000
  21.8320000  31.2860000  13.4330000   9.5690000  19.6620000  18.2430000
   9.0590000  20.3900000  17.8870000  10.4220000  20.0440000  18.4470000
  12.2550000  32.6460000  13.4090000  12.6390000  32.3380000  14.2300000
  11.7660000  33.4320000  13.6530000  16.1900000  35.7010000  15.5030000
  16.7080000  35.6260000  16.3040000  15.3010000  35.4670000  15.7690000
  24.1640000   0.5960000  11.3480000  23.2950000   0.8470000  11.6600000
  24.1070000  -0.3510000  11.2170000  43.9880000  32.7260000   9.7050000
  43.1340000  32.9040000   9.3090000  43.8500000  31.9370000  10.2280000
  24.5380000  17.4830000   6.2700000  24.3630000  16.9410000   5.5010000
  23.7510000  17.3950000   6.8090000  27.2030000  16.6970000  34.8990000
  27.0910000  16.6720000  33.9490000  26.8300000  15.8710000  35.2060000
  33.0120000  40.4110000  39.9540000  33.1360000  39.9050000  40.7570000
  33.8970000  40.5490000  39.6190000  19.5230000  34.9830000  25.0990000
  19.3220000  35.2320000  26.0010000  18.7600000  34.4800000  24.8140000
  41.0520000  24.0930000  35.1320000  40.3770000  24.7210000  34.8760000
  41.8740000  24.5030000  34.8630000  21.4890000  22.7590000  37.4130000
  21.8160000  22.0050000  36.9230000  20.8880000  23.1950000  36.8080000
  39.4390000   5.5530000  31.7990000  39.8020000   4.8500000  31.2600000
  40.1730000   6.1520000  31.9360000  40.8950000  37.5020000   8.4170000
  40.2930000  38.2360000   8.5370000  40.3600000  36.8150000   8.0210000
   3.9310000  40.6380000  31.8590000   4.0610000  39.8640000  31.3110000
   3.8700000  40.2930000  32.7500000  37.8870000  15.2680000   6.8230000
  37.7830000  15.5300000   5.9080000  38.5080000  14.5410000   6.7950000
  36.2850000  37.5100000   3.7320000  36.6070000  37.7460000   4.6030000
  36.5820000  36.6100000   3.6030000  11.8230000  32.3770000  41.8180000
  12.6150000  32.4820000  41.2920000  11.4250000  33.2480000  41.8270000
  18.9680000   5.0540000  13.3120000  19.0910000   4.5410000  14.1110000
  18.9490000   5.9630000  13.6110000  30.3620000  21.2840000   3.3710000
  29.8010000  22.0310000   3.1610000  31.2440000  21.6530000   3.4170000
  12.9770000  12.2830000   2.1990000  13.0540000  13.1690000   2.5510000
  12.3740000  12.3700000   1.4610000  17.6540000   7.1710000  10.5910000
  18.3030000   6.4670000  10.6020000  18.0820000   7.8980000  11.0430000
  18.9090000  40.6200000  30.6020000  19.1590000  40.2090000  29.7740000
  19.2370000  41.5160000  30.5330000  29.5000000  15.9260000  41.4600000
  28.8570000  15.7860000  40.7640000  29.5690000  16.8770000  41.5340000
   0.8860000   0.9070000   6.7180000   0.7040000   0.3550000   5.9580000
   0.0280000   1.2360000   6.9850000  35.6840000  28.8320000  40.1940000
  35.0880000  28.8330000  40.9430000  36.4310000  29.3570000  40.4810000
   3.7270000  42.6170000  18.5820000   4.1430000  42.9710000  19.3680000
   4.4390000  42.5420000  17.9470000  19.1150000   2.6140000  35.8080000
  18.8660000   1.8500000  35.2890000  18.4000000   3.2370000  35.6780000
  23.1090000  27.8430000   2.3600000  23.9220000  27.6980000   2.8440000
  22.7450000  26.9660000   2.2340000  14.6040000  35.9460000  27.9410000
  15.4360000  36.3730000  27.7400000  14.7480000  35.5270000  28.7900000
  30.2530000   8.3710000  39.8600000  29.6220000   8.0210000  40.4890000
  30.3410000   7.6820000  39.2010000   6.6190000  17.1840000  36.4220000
   5.7670000  16.8110000  36.1940000   6.4200000  17.8570000  37.0730000
  40.8260000   4.4820000   8.3890000  40.2280000   5.1720000   8.1040000
  41.4370000   4.9230000   8.9790000   9.6470000  42.8250000   6.8060000
   9.9310000  41.9280000   6.9790000   8.7150000  42.7460000   6.6030000
   4.1430000  14.3000000  27.5560000   4.5070000  13.4410000  27.7700000
   3.2670000  14.1110000  27.2180000  14.1400000  20.1560000  31.4040000
  14.6640000  19.9280000  30.6360000  14.2770000  19.4290000  32.0110000
  44.3430000  37.0940000  13.6450000  44.9740000  37.6120000  13.1460000
  44.7060000  36.2080000  13.6420000  32.6780000  12.9510000  12.3660000
  32.7130000  13.8390000  12.7220000  33.5420000  12.8130000  11.9800000
   8.7240000  27.0360000  23.1790000   9.0510000  27.4700000  23.9670000
   7.7760000  27.1680000  23.2080000  37.3580000  37.3060000  19.9450000
  38.0470000  37.9510000  19.7860000  36.8780000  37.2600000  19.1180000
  41.2180000  28.5580000   3.1320000  41.1450000  27.8260000   3.7430000
  41.7500000  28.2180000   2.4120000   1.4190000  10.5390000  21.6010000
   1.9920000   9.8830000  21.2040000   2.0100000  11.0990000  22.1050000
  10.6470000   6.3430000  33.7710000  10.9130000   5.4290000  33.6710000
  11.0800000   6.7990000  33.0500000  17.4150000  28.2380000  24.4730000
  18.0400000  28.9590000  24.5500000  17.4180000  27.8250000  25.3370000
   2.9810000   6.7000000  19.2120000   3.3560000   5.8190000  19.2030000
   2.2400000   6.6390000  19.8150000  25.7860000  22.8500000  22.2020000
  25.7900000  22.8570000  21.2450000  24.9900000  22.3710000  22.4340000
  17.4720000  12.1110000  32.8120000  18.3420000  12.4640000  33.0030000
  17.2780000  12.4180000  31.9270000  26.0480000  10.9080000  41.3080000
  26.3700000  11.7880000  41.1100000  26.1560000  10.8210000  42.2550000
  35.9320000  29.6070000  37.5100000  36.2130000  30.4710000  37.8100000
  35.7970000  29.1060000  38.3150000   9.8070000  15.2160000   0.5080000
   8.9400000  15.5000000   0.7960000   9.9610000  15.7000000  -0.3030000
  17.2840000  41.3970000  23.0460000  16.4030000  41.0440000  22.9220000
  17.1500000  42.3370000  23.1700000  24.2100000  31.2820000  25.2980000
  24.1030000  32.0410000  24.7250000  23.4300000  30.7510000  25.1410000
  15.1250000  19.6620000  25.0570000  15.3860000  18.7710000  24.8230000
  14.1990000  19.5880000  25.2860000  38.9300000  16.1810000  26.9000000
  38.9110000  15.2240000  26.8720000  39.8580000  16.4030000  26.8250000
   2.5800000  40.9830000  15.0140000   2.0850000  41.8010000  14.9680000
   2.6400000  40.7920000  15.9500000  14.8220000  17.1780000  31.8410000
  14.0430000  16.8200000  32.2660000  14.6720000  17.0340000  30.9060000
  37.1460000  31.4940000  20.2100000  36.3820000  31.1340000  20.6620000
  36.7980000  31.8380000  19.3880000  27.0190000  26.2330000  31.9500000
  26.8430000  27.1380000  32.2090000  27.9240000  26.0780000  32.2230000
  39.6850000   1.1330000  41.0870000  39.9440000   1.9260000  41.5560000
  39.8860000   1.3200000  40.1700000  14.6680000   1.2580000  21.7530000
  15.3580000   0.7910000  22.2240000  14.8770000   1.1250000  20.8280000
  15.1950000  18.2300000   2.8690000  15.3720000  17.9580000   1.9690000
  15.1700000  17.4130000   3.3660000  34.2530000  19.6910000  26.7000000
  34.3970000  19.4720000  25.7790000  33.6060000  19.0520000  26.9990000
  10.9140000  37.0970000  24.2420000  10.4710000  37.3020000  23.4180000
  11.6200000  37.7410000  24.3000000   5.9570000  31.8950000   5.5390000
   6.2650000  31.2130000   4.9420000   5.0060000  31.7880000   5.5540000
  33.3620000  16.7070000  30.3110000  32.8930000  16.4160000  31.0940000
  32.6770000  16.8370000  29.6560000   1.7330000  34.8430000  24.6210000
   1.2870000  34.9880000  25.4560000   2.4570000  35.4700000  24.6250000
   9.5380000  43.6070000  38.4430000   9.0250000  43.5380000  39.2480000
   9.8210000  42.7110000  38.2620000   0.5540000  15.9120000  34.1960000
  -0.2260000  15.3870000  34.0180000   0.2140000  16.7720000  34.4420000
  34.0500000   4.7300000  12.3650000  34.4180000   5.1690000  11.5980000
  33.3800000   5.3330000  12.6880000  28.9270000   4.1740000   9.6900000
  29.8530000   4.0550000   9.9010000  28.7210000   3.4520000   9.0970000
  14.2670000  35.8840000  33.9680000  15.0990000  36.3470000  34.0640000
  13.7070000  36.4940000  33.4880000  31.9750000  40.9370000   8.0520000
  31.8830000  41.3980000   8.8860000  31.2740000  41.2900000   7.5040000
  14.5150000  43.7290000  24.6230000  14.1000000  43.4120000  23.8210000
  13.7920000  44.0790000  25.1440000  15.1430000  32.6510000  29.2360000
  16.0600000  32.7080000  28.9670000  15.1630000  32.7690000  30.1860000
  35.8380000  23.8080000  24.6440000  36.0380000  23.0700000  24.0690000
  36.5210000  23.7820000  25.3140000  34.3470000   1.4540000  27.7660000
  34.6750000   0.5930000  28.0240000  33.3960000   1.3840000  27.8500000
   0.9690000  11.8170000  32.8400000   1.6330000  11.5970000  33.4930000
   0.3220000  11.1160000  32.9100000  32.0480000   6.5550000  11.8090000
  32.1380000   6.8810000  12.7040000  31.1110000   6.6130000  11.6250000
   1.7400000  21.4290000  41.6120000   1.3660000  22.0510000  40.9880000
   1.8270000  21.9280000  42.4240000   5.1970000  37.7600000  16.9090000
   4.5680000  38.1190000  16.2840000   5.5960000  37.0210000  16.4500000
  31.0710000  18.9300000  36.2890000  30.4150000  19.3430000  35.7280000
  30.8760000  19.2580000  37.1670000  30.9290000   4.1100000  35.2210000
  31.2410000   4.9460000  34.8730000  30.1580000   3.9040000  34.6920000
   7.8450000   7.8560000  34.0400000   7.7680000   7.9990000  33.0960000
   8.5340000   7.1970000  34.1260000  26.9810000  23.1590000  33.8430000
  27.8660000  23.2150000  33.4830000  26.9880000  22.3620000  34.3740000
  37.6460000  37.4660000  36.3540000  37.9780000  36.7280000  35.8430000
  36.9590000  37.0890000  36.9030000  31.8110000  11.8050000   3.2670000
  32.2170000  12.5150000   2.7690000  31.0600000  12.2130000   3.6980000
  41.6880000  27.0390000  10.3290000  41.7840000  26.3100000  10.9410000
  42.4720000  26.9970000   9.7810000  18.5070000  41.5120000  33.5660000
  17.5680000  41.4030000  33.4110000  18.8710000  40.6330000  33.4640000
  40.0120000  28.7340000   7.2410000  39.2480000  29.1080000   7.6790000
  40.7430000  28.9260000   7.8280000  27.2050000  38.9850000  24.2250000
  27.6200000  39.6270000  23.6490000  26.7190000  39.5120000  24.8600000
   3.7530000  35.7900000  37.1420000   3.7920000  36.7460000  37.1250000
   4.6200000  35.5210000  37.4450000  14.5710000  28.4750000  14.3260000
  14.4460000  28.8720000  15.1880000  15.0360000  29.1420000  13.8200000
  28.1850000  18.5810000  31.6180000  27.5780000  17.8420000  31.5840000
  27.6900000  19.3150000  31.2550000  38.1830000  36.0680000  22.2210000
  37.3630000  35.6030000  22.3860000  38.0490000  36.4970000  21.3760000
  13.9130000  12.2050000  13.9420000  13.6760000  12.2020000  14.8690000
  14.8500000  12.3970000  13.9350000  19.5940000  40.2610000  23.9750000
  19.4290000  40.1840000  24.9150000  18.8060000  40.6790000  23.6270000
  35.7970000   5.5450000  10.1530000  36.7480000   5.6550000  10.1600000
  35.6080000   5.1520000   9.3010000  35.5540000  15.3610000  16.2730000
  36.1020000  14.6220000  16.0080000  36.1150000  15.8800000  16.8500000
  14.8920000  40.3970000  22.3120000  14.0150000  40.7750000  22.2480000
  15.0360000  39.9790000  21.4630000  30.7620000   2.2900000  13.5330000
  30.5840000   3.1990000  13.7760000  31.7120000   2.2540000  13.4230000
  17.4830000  15.7510000  41.7670000  17.2680000  15.2920000  42.5790000
  17.9450000  15.1000000  41.2390000  11.3140000   2.4240000  20.3460000
  11.9530000   3.0360000  20.7120000  11.7940000   1.9580000  19.6610000
   3.5720000   6.0570000   7.0540000   4.1410000   5.3790000   6.6900000
   2.9630000   6.2650000   6.3450000  18.8070000   3.0440000  15.2370000
  19.2430000   3.2070000  16.0740000  18.1530000   2.3730000  15.4340000
   5.9520000   5.3300000  28.0820000   5.3810000   5.2880000  28.8490000
   6.6920000   4.7640000  28.3020000  43.2620000  19.1240000  21.9750000
  43.7930000  19.5230000  22.6640000  42.6540000  19.8150000  21.7120000
   3.6480000  18.0950000  16.5520000   4.5950000  18.0750000  16.6900000
   3.5290000  17.7740000  15.6580000  33.3910000   5.7850000  22.8080000
  32.6900000   6.3940000  22.5760000  34.0540000   6.3310000  23.2290000
  19.5850000  29.6650000   1.1280000  18.8910000  29.1740000   1.5690000
  19.8840000  29.0830000   0.4300000  34.7950000  22.0720000  34.0680000
  34.0330000  21.6250000  33.6990000  34.6700000  22.0140000  35.0160000
  18.8760000   1.6170000  12.9250000  18.8830000   2.2790000  13.6160000
  18.2190000   1.9270000  12.3020000  10.7110000  37.4230000   4.3990000
   9.9630000  37.3880000   3.8020000  11.3110000  36.7540000   4.0700000
  24.8040000  17.5080000  40.5700000  24.0010000  17.6650000  40.0730000
  24.6250000  17.8770000  41.4350000  35.1480000   0.6900000  11.2440000
  35.3270000  -0.2150000  11.4990000  36.0140000   1.0740000  11.1040000
  36.8400000  22.8130000  21.3880000  37.2000000  22.1440000  20.8050000
  37.1680000  22.5770000  22.2560000  14.6390000  35.9780000  39.7080000
  14.0370000  35.4590000  39.1750000  15.1240000  35.3310000  40.2200000
  13.8530000  30.9580000  19.2960000  13.6200000  30.0550000  19.5120000
  14.5170000  31.1950000  19.9430000  12.6970000  41.1030000   0.6630000
  12.3770000  41.6280000   1.3970000  13.1930000  40.3950000   1.0730000
   3.0850000  39.4940000  34.3660000   2.4940000  39.4540000  35.1180000
   3.3740000  38.5900000  34.2400000  40.6400000   1.3440000  26.6320000
  40.5170000   2.2670000  26.4080000  41.4880000   1.1160000  26.2500000
  17.5480000  40.1770000  26.4170000  17.1040000  39.6480000  25.7550000
  17.0220000  40.9750000  26.4790000   6.1040000   1.1920000  22.8130000
   6.3010000   1.0810000  23.7430000   5.5840000   1.9950000  22.7720000
  40.4450000  14.6280000  37.7420000  40.1330000  14.6950000  36.8400000
  40.2420000  15.4790000  38.1290000  44.1960000  20.4080000  19.3960000
  44.6040000  21.0480000  18.8130000  44.6790000  19.5970000  19.2360000
  45.3090000  41.1920000  32.1830000  44.8810000  41.2220000  31.3270000
  45.1360000  42.0520000  32.5670000  21.7460000   8.1380000  10.2420000
  22.6000000   7.8650000  10.5760000  21.1630000   7.4080000  10.4470000
  14.9160000  39.7450000   9.5140000  14.0430000  39.8410000   9.1320000
  14.8980000  38.8890000   9.9410000  17.2430000  19.5910000  15.1650000
  17.1170000  20.5400000  15.1930000  17.2840000  19.3820000  14.2320000
   8.7850000   9.3720000   9.3190000   9.5160000   8.7590000   9.3990000
   8.9730000  10.0550000   9.9620000  30.2160000  36.2950000  40.3430000
  29.6540000  35.5250000  40.4360000  30.2500000  36.4530000  39.3990000
  41.6750000  16.2310000  26.1390000  41.7940000  15.3110000  26.3760000
  42.4530000  16.4470000  25.6250000  11.6430000  21.2510000   3.8110000
  11.0910000  20.7970000   4.4470000  11.2050000  22.0900000   3.6700000
  21.3140000   8.6980000  15.9310000  21.3930000   8.8510000  14.9900000
  20.7450000   7.9320000  16.0020000  42.1750000  40.5220000   3.4410000
  42.4650000  40.1870000   2.5930000  42.2300000  39.7670000   4.0280000
  24.3270000   4.9960000  39.8630000  24.0000000   4.2460000  40.3600000
  23.8070000   5.7360000  40.1770000   5.1310000   1.8830000   1.3350000
   4.7320000   1.9050000   2.2050000   4.3900000   1.8080000   0.7340000
  16.0790000  30.4020000  31.0910000  15.5380000  29.7330000  31.5100000
  16.8890000  29.9470000  30.8620000  28.1360000   3.8180000  37.0390000
  27.2750000   3.4550000  36.8320000  28.6100000   3.7990000  36.2070000
   8.7190000  26.1380000  14.9370000   8.6480000  26.4480000  14.0350000
   9.1540000  25.2880000  14.8650000  18.6940000  18.2560000  10.9170000
  17.8420000  18.6900000  10.9610000  18.6360000  17.5500000  11.5600000
  15.4730000  35.6640000  21.7030000  15.2110000  35.5090000  20.7960000
  14.9290000  36.4000000  21.9870000  16.3690000   2.2610000  37.1960000
  16.7910000   2.9510000  36.6850000  16.5350000   1.4590000  36.7000000
  34.7550000  38.3810000  12.1610000  35.6980000  38.2180000  12.2000000
  34.5970000  38.6600000  11.2590000  33.4280000  15.9980000   9.2640000
  33.3960000  15.0560000   9.0950000  34.2590000  16.1320000   9.7200000
  44.2350000  14.3880000  28.6220000  44.4680000  14.5370000  29.5380000
  43.7840000  15.1900000  28.3560000  40.6960000  20.8930000  22.4190000
  41.0630000  20.4340000  21.6630000  40.9010000  21.8150000  22.2620000
  24.1110000   1.3270000  23.9810000  24.8050000   1.0170000  24.5620000
  23.3320000   1.3630000  24.5370000  14.0260000  16.7210000  29.4120000
  13.0970000  16.7890000  29.6310000  14.1110000  15.8640000  28.9940000
  32.2270000  20.2050000  15.6200000  33.1320000  20.5180000  15.6080000
  31.7750000  20.8040000  16.2140000  22.0730000  26.2020000  15.6540000
  21.2060000  26.5790000  15.5090000  21.9890000  25.2920000  15.3710000
   0.9270000  11.7600000  15.9700000   1.5240000  11.6640000  16.7130000
   0.2130000  11.1490000  16.1570000  35.1730000  11.7290000  26.7930000
  35.5300000  11.9160000  25.9250000  34.2390000  11.9240000  26.7150000
   7.2440000  42.4160000   1.0330000   7.5850000  42.9920000   0.3480000
   7.3170000  42.9310000   1.8370000   4.3490000  20.7510000  31.5830000
   4.0940000  21.2510000  32.3590000   4.5480000  19.8760000  31.9160000
  24.3980000  35.2760000   3.4170000  23.6700000  35.8850000   3.2950000
  24.0900000  34.6670000   4.0890000  33.9530000  10.2140000   3.9550000
  33.6710000   9.3030000   3.8800000  33.1790000  10.7250000   3.7210000
  23.3950000  14.0210000  19.6430000  22.7910000  13.3520000  19.9670000
  23.6830000  14.4840000  20.4300000  10.1930000  26.2240000  31.8460000
  10.7110000  25.4190000  31.8560000   9.8940000  26.3050000  30.9400000
  35.2740000  12.6920000  15.2060000  35.2260000  13.3690000  14.5310000
  34.4790000  12.1740000  15.0830000  19.6530000   8.6490000  25.1820000
  20.3130000   9.2800000  25.4690000  19.8070000   8.5530000  24.2420000
  35.4990000  42.8310000  39.8990000  35.8890000  42.1260000  40.4160000
  34.8950000  43.2650000  40.5030000  23.1190000  34.4730000  28.5340000
  23.9840000  34.1890000  28.8320000  23.3010000  35.1030000  27.8370000
  19.2220000   9.9370000  31.1780000  19.9000000   9.7350000  31.8230000
  18.8590000  10.7750000  31.4650000   7.5320000  31.9240000  39.5980000
   6.6290000  31.6820000  39.8030000   7.5510000  31.9940000  38.6430000
  31.3310000  37.9240000  24.3250000  31.4660000  37.8420000  23.3810000
  31.0860000  38.8410000  24.4530000  21.3540000  17.8140000  25.1050000
  20.4410000  17.9660000  24.8580000  21.6240000  18.6250000  25.5350000
  35.6410000   2.9310000   7.9890000  35.7480000   2.0320000   8.2980000
  34.7880000   2.9350000   7.5540000  37.3870000  29.0130000   7.8560000
  37.4800000  28.6510000   8.7370000  36.4420000  29.0460000   7.7090000
  28.6550000  27.6130000  16.6660000  29.1510000  26.9760000  16.1500000
  29.3240000  28.1540000  17.0850000  31.6610000   6.4270000  18.8570000
  32.0650000   6.9890000  19.5190000  32.0760000   5.5740000  18.9810000
  25.1810000  34.3130000  35.5870000  26.0300000  33.9810000  35.2940000
  24.9620000  33.7740000  36.3480000  12.4640000  25.3010000  20.8870000
  12.5390000  26.2340000  21.0840000  13.0170000  25.1730000  20.1160000
  11.1930000   0.4240000  12.9150000  10.6290000  -0.2080000  13.3590000
  11.3040000   0.0690000  12.0330000  29.2070000  16.3970000  30.1620000
  28.7960000  17.2450000  30.3340000  29.2350000  16.3340000  29.2070000
  41.0690000   3.3320000  12.8230000  41.3590000   3.3010000  13.7340000
  40.4620000   2.5960000  12.7400000  19.5800000   1.9760000   2.6520000
  19.7830000   2.7590000   3.1640000  19.0800000   2.3010000   1.9040000
  38.4240000  19.9240000  29.3770000  39.2820000  20.3110000  29.2030000
  37.8120000  20.4610000  28.8730000  18.7770000  20.4350000  41.4180000
  18.8840000  21.1200000  42.0770000  19.2240000  20.7760000  40.6430000
   2.2090000  10.8860000  36.4130000   2.1850000  11.8080000  36.1570000
   1.3050000  10.6790000  36.6510000  22.9420000  13.3220000  38.9960000
  22.9820000  14.0400000  39.6280000  23.7830000  13.3570000  38.5410000
  38.8630000  21.5820000  11.4390000  38.4880000  21.6820000  12.3140000
  38.3490000  22.1740000  10.8900000   4.8590000  34.4650000   6.9100000
   4.4110000  34.6880000   6.0940000   4.6710000  33.5360000   7.0410000
   0.2380000  32.0490000  26.6430000   0.8140000  31.7030000  27.3240000
  -0.6380000  31.7610000  26.9010000  22.0200000   4.2360000   2.5390000
  22.8790000   3.8230000   2.4490000  21.8810000   4.6820000   1.7030000
  21.4910000   8.8220000  19.7380000  21.4570000   8.1350000  20.4030000
  21.6080000   8.3510000  18.9130000  32.0650000  15.2550000   5.5850000
  31.2300000  15.0170000   5.1800000  32.1910000  14.6020000   6.2740000
  17.8090000  17.2880000   5.1230000  17.0680000  17.3650000   5.7240000
  18.4130000  16.6900000   5.5620000  10.7640000   0.4960000   3.4070000
  10.4010000   0.9300000   2.6350000  10.3730000   0.9600000   4.1480000
  30.2320000   5.1320000  25.7260000  30.8200000   5.3720000  26.4420000
  29.9470000   4.2430000  25.9390000  13.3710000  15.0060000  18.6700000
  14.0030000  14.3370000  18.9320000  13.0910000  15.4060000  19.4940000
  28.1140000  36.5190000  17.2690000  27.8560000  35.8700000  16.6150000
  27.6190000  37.3050000  17.0340000  22.1710000  37.2540000  10.0630000
  22.6840000  37.3270000  10.8680000  22.4400000  38.0080000   9.5380000
   4.8700000  35.0790000  29.9040000   4.2000000  35.2430000  30.5680000
   4.4360000  35.2740000  29.0730000  16.2490000  11.1280000  11.5990000
  16.2900000  11.8670000  10.9930000  15.6320000  10.5190000  11.1930000
  15.6300000   9.6570000  35.4170000  15.2110000  10.2210000  34.7670000
  16.5650000   9.7160000  35.2180000   5.7230000  16.1640000  39.2490000
   6.4890000  15.7190000  38.8850000   5.7380000  17.0330000  38.8490000
  18.2330000   7.0250000  35.8500000  19.1390000   6.9110000  36.1380000
  18.2610000   7.7790000  35.2610000  10.1020000  13.6160000  32.8770000
  10.0220000  14.1060000  33.6960000   9.5490000  14.0920000  32.2580000
   7.1960000   1.8750000   7.9960000   7.5580000   1.0780000   7.6100000
   7.8930000   2.5240000   7.9050000  17.0260000  26.8220000  41.8500000
  17.9460000  26.9280000  42.0940000  16.6480000  26.3050000  42.5620000
   2.9890000   6.9370000  25.5440000   3.4140000   6.0890000  25.6750000
   3.3420000   7.2560000  24.7130000  20.8280000   9.1940000  33.3710000
  21.1680000   8.5500000  32.7510000  21.5240000   9.8480000  33.4430000
  15.2890000  35.1190000  18.7290000  15.9650000  34.4540000  18.5990000
  14.4650000  34.6540000  18.5820000  44.1500000  10.1310000  33.3990000
  44.0590000   9.2110000  33.1520000  43.3500000  10.3290000  33.8860000
  17.2020000   9.9840000  37.8050000  17.9800000   9.8990000  37.2540000
  16.5110000   9.5410000  37.3130000  10.3830000  35.6730000  12.7970000
  10.9870000  36.3870000  12.5940000   9.8640000  35.5650000  12.0000000
  12.8510000  10.6290000   7.8860000  12.1280000  10.0040000   7.9370000
  12.6370000  11.1830000   7.1350000  34.0890000  32.1580000  11.7670000
  33.2190000  32.4150000  11.4610000  34.2010000  32.6270000  12.5940000
  36.4340000  40.0720000   2.7630000  36.6050000  39.1630000   3.0100000
  37.3000000  40.4770000   2.7230000  23.8920000   7.2010000   4.4280000
  24.5900000   6.5540000   4.5290000  23.3500000   7.0930000   5.2090000
  20.2790000  36.6920000   4.0910000  20.0790000  35.7740000   4.2780000
  19.8400000  36.8680000   3.2590000  29.3900000  25.8210000  26.7020000
  28.6660000  26.3270000  27.0700000  29.6050000  26.2700000  25.8840000
  38.0580000  23.5150000  37.1090000  38.7360000  23.9730000  37.6050000
  37.6860000  22.8900000  37.7310000  14.9040000  28.1100000  38.5300000
  15.8010000  28.3740000  38.7370000  14.8520000  27.1970000  38.8130000
  39.0390000   0.9460000  21.5970000  39.3510000   0.0530000  21.4530000
  39.7530000   1.5020000  21.2870000   7.7160000  37.7530000  40.3730000
   8.1620000  37.1310000  40.9480000   7.7330000  37.3370000  39.5120000
  44.4710000  28.7200000   2.4300000  45.2410000  29.2660000   2.5860000
  44.4180000  28.6460000   1.4770000  36.8070000   4.9410000  35.8530000
  36.6590000   5.7600000  36.3260000  35.9600000   4.4960000  35.8750000
  14.1760000   5.6880000  38.9020000  15.0710000   5.4820000  39.1730000
  14.2810000   6.1900000  38.0940000  29.2850000  22.8870000  14.8440000
  28.3360000  23.0070000  14.8150000  29.5150000  22.5770000  13.9680000
  25.4580000  30.9420000  27.7690000  25.0610000  31.1090000  26.9140000
  24.9580000  30.2080000  28.1260000   8.7180000   4.0500000   1.4410000
   8.1290000   4.1600000   0.6940000   9.5950000   4.1560000   1.0730000
  42.0230000  35.2380000  36.4720000  42.8150000  35.6830000  36.1720000
  41.3820000  35.9400000  36.5860000  11.6760000  42.6960000  10.5080000
  10.9970000  42.0240000  10.4500000  12.0160000  42.7710000   9.6170000
  13.9270000   9.4300000   4.8560000  13.4910000   9.3060000   4.0130000
  13.2140000   9.5980000   5.4730000  34.4370000  35.3230000  18.6170000
  33.6670000  35.2000000  18.0620000  34.5370000  36.2730000  18.6800000
  13.2580000  42.6260000  29.4720000  13.2540000  42.7500000  30.4210000
  14.1440000  42.8690000  29.2020000  34.0240000  21.9150000  42.1600000
  33.1870000  21.4940000  41.9640000  33.8760000  22.8420000  41.9740000
  37.5450000  12.8040000  12.7330000  37.5070000  12.8970000  11.7810000
  38.0560000  13.5580000  13.0280000  10.6940000   8.0690000  31.3850000
  10.8300000   9.0080000  31.2580000  10.7250000   7.7020000  30.5020000
  11.8340000  24.0010000  31.7730000  11.4740000  23.1190000  31.8720000
  12.4130000  24.1100000  32.5270000  43.2140000  31.3350000  32.8970000
  43.7080000  31.2050000  33.7060000  43.4480000  32.2180000  32.6120000
   9.5370000  23.8830000  34.7180000   9.3960000  24.5080000  34.0070000
  10.0830000  24.3540000  35.3470000  13.5810000  17.4320000  22.6790000
  13.3250000  16.7750000  22.0320000  13.9860000  16.9290000  23.3850000
  10.1270000  37.6650000  32.9380000   9.6130000  37.1000000  33.5150000
   9.6870000  38.5150000  32.9820000  23.8570000  35.0680000  32.2570000
  24.1580000  35.6400000  31.5510000  24.4130000  35.2960000  33.0030000
   5.0710000  27.0690000  31.8300000   5.3210000  27.0530000  32.7540000
   5.2890000  26.1950000  31.5080000  12.1900000  35.7190000   2.4770000
  13.0360000  36.1150000   2.2680000  12.3930000  35.0530000   3.1350000
  24.4890000  20.6880000  38.3510000  25.1440000  21.3380000  38.6030000
  24.4920000  20.7030000  37.3940000  29.7680000  -0.0730000  32.3940000
  29.9630000   0.3650000  31.5660000  28.8830000   0.2170000  32.6160000
  44.0100000  25.2670000  38.3870000  44.4560000  24.7460000  37.7190000
  43.1970000  24.7920000  38.5580000  10.9620000  25.3850000  41.8790000
  10.6410000  24.7190000  42.4870000  10.2990000  25.4170000  41.1890000
  16.3320000  10.6510000   4.3410000  16.9410000   9.9120000   4.3510000
  15.5430000  10.3160000   4.7690000  38.8320000  30.1960000  16.8420000
  38.8550000  31.1520000  16.8670000  39.1250000  29.9270000  17.7120000
  17.7720000  21.6840000  38.5190000  17.3970000  20.8420000  38.7800000
  18.6880000  21.6330000  38.7900000  16.0710000  21.3380000   0.2860000
  16.8380000  20.8950000  -0.0790000  16.3590000  21.6460000   1.1450000
   3.1090000  29.1900000  26.1980000   2.5400000  29.4340000  26.9280000
   3.7190000  29.9220000  26.1140000   9.6610000  13.6500000  15.3410000
   8.8530000  13.2460000  15.0240000   9.6120000  13.5670000  16.2940000
  38.7930000   6.1080000   5.4360000  39.5610000   6.3080000   4.9010000
  38.1000000   6.6630000   5.0780000  12.2000000  40.1330000   8.3420000
  11.2670000  40.0070000   8.1700000  12.4580000  40.8450000   7.7570000
  36.0840000  42.5400000  37.1880000  35.4430000  42.4060000  37.8860000
  36.8980000  42.7510000  37.6470000   5.0710000  12.2430000  14.5360000
   4.6860000  13.0030000  14.9740000   4.4050000  11.9680000  13.9060000
  23.3490000   4.1490000   4.9010000  22.6960000   4.2870000   5.5880000
  22.8530000   4.2110000   4.0850000  26.8390000  12.9200000  29.5240000
  27.3120000  12.7860000  28.7030000  27.5250000  13.0940000  30.1690000
  32.5220000  24.1370000  14.5280000  31.9450000  24.2270000  13.7700000
  32.9420000  24.9930000  14.6140000  22.8870000  34.7760000   8.9500000
  22.6740000  35.6280000   9.3320000  23.8390000  34.7890000   8.8520000
   8.6930000  15.1550000   9.6390000   8.1390000  15.3430000  10.3960000
   9.4530000  14.7040000  10.0050000  18.8210000  33.8590000   1.3890000
  18.3460000  33.2560000   1.9610000  19.6180000  34.0720000   1.8740000
  40.7750000  42.9250000  20.2730000  41.1080000  43.4320000  19.5320000
  41.5600000  42.6190000  20.7260000  42.8200000  10.6650000  24.0780000
  43.2930000  10.6300000  23.2460000  41.9700000  11.0440000  23.8540000
  36.9770000  24.9050000   5.4120000  36.6930000  24.6720000   4.5280000
  37.2540000  25.8180000   5.3410000  35.3650000  35.2820000   2.1040000
  35.8970000  34.7430000   2.6900000  35.8940000  35.3660000   1.3110000
  29.2680000  22.4850000  11.7180000  29.3750000  21.5530000  11.5260000
  28.5050000  22.7490000  11.2040000  26.1910000  26.9670000   7.5770000
  26.6310000  26.1760000   7.8870000  25.5950000  27.2030000   8.2880000
  25.6570000  35.1800000  11.8830000  25.9250000  34.4240000  11.3610000
  24.7040000  35.1050000  11.9410000  37.6480000   8.7760000   2.0020000
  38.4450000   9.0250000   1.5350000  37.1650000   8.2320000   1.3800000
   3.6790000  16.8480000  27.3030000   2.9190000  16.9390000  27.8760000
   3.8970000  15.9170000  27.3390000  22.5710000  37.3830000   3.0900000
  21.7700000  37.2230000   3.5900000  22.2930000  37.9460000   2.3670000
  19.3350000  37.2710000  34.8440000  19.3270000  37.8940000  34.1180000
  20.1790000  37.4130000  35.2730000  23.5950000  11.4880000   6.1000000
  23.2160000  10.8190000   6.6710000  23.9070000  11.0020000   5.3360000
  43.8630000  27.1330000  18.5450000  44.2810000  27.7900000  17.9880000
  43.0080000  26.9860000  18.1420000   9.0780000   8.9980000  14.8280000
   8.3030000   8.8300000  15.3630000   8.8450000   9.7640000  14.3030000
  19.1000000  15.4100000  24.7320000  18.2220000  15.1050000  24.5040000
  19.2030000  16.2280000  24.2460000  36.7450000  19.7900000  13.8870000
  37.4180000  19.1890000  13.5700000  35.9980000  19.2280000  14.0910000
  35.8430000  25.9210000  39.8810000  36.0960000  26.8190000  39.6690000
  36.6170000  25.5470000  40.3020000  19.9190000  22.2060000  12.2230000
  19.0830000  22.5310000  11.8880000  19.6770000  21.6020000  12.9240000
  15.7760000   7.1540000  13.3570000  14.8920000   7.5040000  13.4710000
  16.1730000   7.7180000  12.6940000  19.5050000   2.1110000   9.1310000
  20.0620000   1.3970000   8.8210000  18.7100000   1.6770000   9.4400000
  14.1070000  43.1080000  32.1400000  14.6650000  43.8700000  32.2970000
  13.5170000  43.0850000  32.8930000   8.3670000  26.9080000  35.8730000
   9.0400000  27.4870000  36.2300000   8.8270000  26.0880000  35.6940000
  21.4690000  37.8830000  25.1910000  21.4530000  36.9790000  25.5040000
  21.1240000  37.8350000  24.2990000   5.2240000  27.6010000  37.9980000
   4.7310000  27.8410000  38.7830000   5.8380000  28.3250000  37.8710000
  21.1040000  17.6870000  37.9860000  21.2800000  16.8740000  38.4580000
  21.4900000  17.5510000  37.1210000  32.1140000  34.8140000  17.2400000
  32.1490000  33.8750000  17.0550000  31.9980000  35.2240000  16.3830000
  40.3780000  37.4060000  28.3880000  40.0040000  37.8870000  29.1260000
  39.6240000  37.1750000  27.8460000  11.8720000  26.1950000   5.3530000
  11.5170000  25.8500000   4.5330000  11.6760000  25.5190000   6.0010000
  19.9180000  43.7440000   5.3780000  19.3480000  42.9990000   5.5690000
  19.3230000  44.4910000   5.3180000  16.2630000  16.1580000  22.0060000
  17.0730000  15.7070000  21.7700000  15.7760000  16.2230000  21.1840000
  23.7890000  15.4630000   4.3640000  23.0580000  15.6990000   3.7920000
  23.9610000  14.5430000   4.1650000  33.3070000  26.8620000  15.7770000
  34.2570000  26.7590000  15.7280000  33.0730000  27.3180000  14.9680000
  44.5790000  30.1630000  35.4530000  45.2890000  30.0220000  36.0790000
  43.8050000  30.3090000  35.9980000  21.5500000  22.7600000  10.0770000
  22.2830000  22.9580000  10.6600000  20.8470000  22.4810000  10.6630000
   7.8420000  20.4350000  14.8990000   7.9510000  21.0990000  15.5800000
   8.2610000  20.8140000  14.1260000  18.0290000  12.1940000  30.2320000
  17.1730000  12.6060000  30.3470000  17.9240000  11.6330000  29.4640000
  33.9380000  26.0960000  11.7370000  33.8870000  26.8470000  11.1460000
  33.7480000  25.3400000  11.1820000  27.1630000  17.9490000   5.6240000
  27.1470000  17.1700000   5.0680000  26.3320000  17.9200000   6.1000000
  27.2360000   5.8800000  28.2100000  26.5840000   6.2260000  28.8190000
  27.6030000   5.1180000  28.6590000  36.1200000  43.7700000   8.2050000
  36.0990000  42.8960000   8.5940000  37.0520000  43.9720000   8.1200000
  27.5820000  24.8010000   8.0210000  27.3380000  24.3130000   7.2350000
  28.5320000  24.6970000   8.0830000  16.8330000  37.7780000  24.7230000
  16.0810000  37.1870000  24.7060000  17.3290000  37.5590000  23.9340000
  10.0900000  34.2450000  32.3730000  10.4750000  33.6350000  31.7440000
  10.7610000  34.3470000  33.0490000  11.5740000  21.2070000  31.7480000
  11.4260000  20.5010000  32.3770000  12.4760000  21.0790000  31.4510000
   3.5950000  36.8390000  34.2860000   2.8530000  36.6230000  34.8500000
   4.3650000  36.5950000  34.7990000  16.9430000   8.1410000  24.8090000
  16.8200000   7.2650000  24.4440000  17.8480000   8.1460000  25.1210000
  27.9110000  38.5600000  19.5940000  27.8350000  37.6060000  19.5850000
  27.4780000  38.8410000  18.7880000  21.0740000  13.1880000   5.6990000
  22.0220000  13.0630000   5.7460000  20.7400000  12.3560000   5.3620000
   3.3730000  19.3590000  26.1670000   2.5430000  19.6410000  26.5510000
   3.4210000  18.4230000  26.3600000  43.1180000  43.1360000   1.1690000
  43.5670000  43.9650000   1.3340000  42.4700000  43.0710000   1.8700000
   3.0730000   7.7580000   9.1190000   3.0280000   7.1530000   8.3780000
   3.5020000   7.2560000   9.8120000  32.2450000  16.0000000  12.8170000
  32.5570000  16.9050000  12.8150000  31.5140000  15.9970000  12.1980000
  23.8280000  42.3960000  40.4090000  23.1560000  42.9560000  40.7970000
  24.4630000  42.2610000  41.1130000  26.5590000   6.0110000  41.2650000
  27.0110000   5.9640000  40.4230000  25.7090000   5.6010000  41.1040000
   2.1620000  42.0920000  37.9730000   2.0740000  43.0340000  37.8240000
   1.9890000  41.9800000  38.9080000  17.1570000  13.6190000  10.1760000
  16.9820000  14.5010000   9.8490000  17.1490000  13.0670000   9.3940000
  26.5290000  41.2720000  33.2440000  26.7840000  40.4560000  32.8130000
  25.6310000  41.1180000  33.5360000  24.1200000  19.1490000  10.4300000
  23.2600000  19.2790000  10.0300000  23.9490000  19.1520000  11.3720000
  38.7840000  14.6100000  34.8000000  38.0510000  14.8720000  35.3580000
  38.7850000  15.2520000  34.0900000  11.1130000  10.2380000  18.5640000
  11.3900000  10.0820000  17.6620000  10.9590000   9.3640000  18.9230000
  20.1660000  40.7250000  21.0780000  19.4450000  40.1380000  20.8510000
  20.3840000  41.1660000  20.2570000  13.9370000  37.3900000  18.3550000
  13.4000000  37.0430000  19.0680000  14.5520000  36.6840000  18.1540000
  21.3990000  18.1560000  11.8840000  20.9240000  18.7450000  12.4700000
  20.9640000  18.2580000  11.0380000  18.9800000  29.3220000  29.7280000
  18.6220000  28.7240000  29.0720000  19.1110000  30.1440000  29.2560000
   9.2520000   1.9080000  25.5290000   9.8710000   1.2250000  25.7880000
   8.4010000   1.4700000  25.5230000  43.9040000  32.9490000  19.6890000
  43.5820000  33.7930000  20.0050000  44.0510000  33.0830000  18.7520000
   2.5000000  14.9160000   4.8220000   1.9340000  14.3280000   5.3220000
   2.8740000  14.3640000   4.1360000   7.5000000   4.8860000  41.2870000
   6.7790000   5.4550000  41.0160000   8.1630000   4.9990000  40.6050000
  15.7990000   1.9380000  11.7990000  15.2590000   1.4590000  12.4280000
  15.7120000   2.8550000  12.0580000  17.0990000  33.3940000   9.6810000
  16.2470000  33.6330000  10.0440000  17.6850000  33.3770000  10.4380000
   2.7630000  15.2450000  29.8980000   3.4090000  15.3370000  29.1990000
   2.6150000  14.3020000  29.9650000  41.9280000  21.8430000  17.7990000
  41.7820000  22.7160000  18.1630000  41.8310000  21.2530000  18.5470000
   5.3480000  22.0750000  27.3800000   4.4680000  22.2520000  27.7140000
   5.7450000  21.5090000  28.0420000   5.3470000  26.2730000  28.5910000
   4.7700000  25.6180000  28.9830000   5.8930000  25.7770000  27.9810000
  43.2010000  30.2580000  11.2370000  42.4790000  30.0140000  10.6580000
  43.5100000  29.4270000  11.5980000   9.3580000  16.0250000  31.4260000
   8.8500000  16.5150000  32.0720000   8.7230000  15.7910000  30.7500000
   2.3010000  25.1980000  28.5080000   2.3420000  25.7860000  29.2620000
   1.3790000  25.2050000  28.2490000  22.1520000  35.1540000  25.2430000
  22.7000000  34.5010000  24.8080000  21.2580000  34.8320000  25.1270000
  16.6440000  17.6790000  17.0050000  16.1280000  17.1440000  16.4010000
  17.0100000  18.3730000  16.4570000   2.0710000  17.6310000  23.0430000
   2.0870000  18.3670000  23.6540000   1.9680000  16.8590000  23.6000000
  21.2070000  26.9210000  37.8650000  21.6670000  27.6700000  37.4850000
  21.5790000  26.8310000  38.7420000  11.0570000  21.5870000  35.0220000
  10.9660000  22.4230000  34.5650000  11.7980000  21.7170000  35.6140000
  22.1700000  31.8010000  29.6550000  22.7110000  31.0150000  29.5760000
  22.6120000  32.4510000  29.1090000  42.0910000  36.2390000   2.2460000
  42.7500000  36.9270000   2.3370000  41.9090000  35.9620000   3.1440000
  31.7200000  26.0380000  17.7610000  32.2760000  26.1760000  16.9940000
  31.6910000  26.8920000  18.1920000   9.8710000  22.7550000  20.2660000
   9.9640000  23.1470000  21.1340000  10.5220000  22.0530000  20.2490000
  36.0210000  35.7520000  38.2710000  36.2590000  34.9520000  38.7400000
  35.9380000  36.4160000  38.9560000  40.7360000  42.2240000   6.4830000
  40.3240000  43.0340000   6.1820000  41.4610000  42.5160000   7.0350000
  42.9050000  32.1530000  40.7660000  42.7290000  31.3310000  41.2230000
  42.5300000  32.8270000  41.3330000  16.9050000  39.2180000   7.0060000
  16.9190000  38.2730000   6.8580000  16.5560000  39.3170000   7.8920000
  33.9320000  22.2150000  16.2920000  33.8920000  22.6880000  17.1230000
  33.8510000  22.8960000  15.6240000   2.6770000  24.9710000   0.8300000
   2.2100000  24.2440000   1.2420000   3.6010000  24.7260000   0.8890000
  25.6820000  36.7760000  30.9720000  26.1770000  37.5330000  31.2850000
  25.6940000  36.8590000  30.0190000  38.0380000  27.3970000   5.4040000
  38.9770000  27.2480000   5.2970000  37.9400000  27.6650000   6.3180000
  33.8790000  19.1590000  35.9110000  32.9640000  19.0040000  36.1460000
  34.1010000  18.4380000  35.3220000  33.5480000   9.6450000  23.4160000
  32.7970000  10.0130000  22.9500000  33.9790000  10.4030000  23.8110000
   5.3710000  35.2810000  12.7090000   6.2450000  35.6170000  12.9040000
   5.0140000  35.8980000  12.0710000  35.2860000  32.3470000   8.9930000
  35.2560000  32.3520000   9.9500000  34.4870000  31.8890000   8.7310000
  -0.2970000  38.2810000  29.0910000   0.1830000  37.6570000  29.6350000
   0.2950000  38.4670000  28.3620000  39.2570000  39.2270000   2.6250000
  39.5970000  39.3470000   3.5110000  39.6330000  39.9510000   2.1230000
  44.5280000  27.0250000  23.5160000  44.5650000  27.4840000  22.6770000
  44.3560000  27.7140000  24.1580000  28.9880000  37.2920000  26.5720000
  29.2300000  37.9060000  25.8790000  29.4970000  37.5770000  27.3320000
  27.9390000  29.3710000  14.5000000  28.0150000  28.5690000  15.0160000
  28.1580000  29.1030000  13.6070000  13.1880000  15.9400000  41.9120000
  13.5660000  15.2850000  41.3250000  12.7090000  16.5320000  41.3320000
  28.6180000  13.2170000  14.9250000  27.8880000  13.0600000  15.5240000
  28.2360000  13.1180000  14.0520000   0.5420000   2.7600000   3.7650000
   0.1610000   3.4800000   3.2630000   0.7150000   3.1340000   4.6290000
  37.9190000   6.7590000  13.5310000  37.4250000   7.4670000  13.1160000
  38.8130000   6.8680000  13.2050000  30.0020000  23.7640000  42.1720000
  30.1510000  22.8370000  41.9880000  29.2420000  23.9950000  41.6360000
  31.5370000  25.5320000   3.6590000  32.1530000  25.0870000   4.2410000
  30.9430000  24.8420000   3.3650000   4.4530000  25.2200000  23.1620000
   4.4060000  25.4020000  24.1010000   3.5500000  25.3090000  22.8560000
  18.4060000   9.0210000   3.4520000  17.9060000   8.2400000   3.2160000
  19.1300000   9.0400000   2.8260000   3.9490000  21.8600000   3.9000000
   3.1580000  21.5630000   4.3500000   4.3970000  21.0530000   3.6460000
  25.6280000  26.0860000  25.7600000  25.7120000  27.0390000  25.7810000
  24.9610000  25.8900000  26.4180000  25.3820000  41.3170000  24.4140000
  25.8860000  41.7230000  23.7090000  25.2800000  42.0100000  25.0660000
  36.0460000  15.1670000  35.7340000  35.5640000  15.4010000  34.9410000
  35.5320000  15.5450000  36.4470000  16.4180000  29.5990000  17.9310000
  16.9540000  29.3330000  17.1840000  16.7540000  29.0820000  18.6630000
   1.7160000  40.8870000  12.0500000   1.8120000  40.9210000  13.0020000
   2.2930000  40.1740000  11.7760000  29.7600000  25.7430000  32.5390000
  30.4500000  25.3190000  32.0290000  29.8860000  25.4160000  33.4300000
  39.6280000  39.1150000  20.2420000  40.5480000  38.9240000  20.4220000
  39.6250000  39.4570000  19.3480000  33.3650000  31.1840000  24.0580000
  32.7480000  30.7780000  24.6680000  32.9830000  32.0400000  23.8650000
  32.8600000  20.5990000  19.5470000  33.4930000  21.2330000  19.2100000
  32.7840000  19.9440000  18.8530000  16.4050000  10.7670000  24.9890000
  16.5380000   9.8200000  24.9350000  15.6690000  10.9390000  24.4010000
  28.8020000  13.7070000  31.1020000  29.6200000  13.2220000  30.9940000
  29.0390000  14.6180000  30.9260000  29.1760000  18.6780000  13.2780000
  28.9950000  18.9260000  14.1850000  28.4440000  18.1110000  13.0340000
   3.6450000  27.7260000   7.1370000   4.0360000  27.4040000   6.3250000
   2.7070000  27.7670000   6.9530000  36.8160000   3.1150000  30.8980000
  36.0820000   3.5400000  31.3430000  36.5500000   2.1990000  30.8190000
   1.1490000  26.0810000   3.2850000   1.5320000  25.7460000   2.4750000
   1.6240000  25.6280000   3.9810000   9.1500000   1.5830000   5.6010000
   9.2450000   2.3850000   6.1140000   9.5000000   0.8940000   6.1650000
  22.8020000   0.2270000  34.0150000  22.8970000   0.5590000  34.9080000
  22.4680000  -0.6630000  34.1250000   0.0060000  34.1650000   1.0180000
  -0.1450000  34.7150000   0.2490000   0.4920000  33.4120000   0.6820000
  34.6440000  25.7950000   1.1060000  33.9850000  25.2160000   0.7230000
  34.2200000  26.6520000   1.1400000   1.6070000  28.5800000  17.0760000
   1.3740000  29.3040000  17.6560000   2.5610000  28.6200000  17.0120000
   2.7110000  35.7960000  31.7070000   3.0140000  36.0760000  32.5700000
   1.8160000  36.1300000  31.6470000   6.1190000   9.8950000  20.0930000
   6.7750000  10.3620000  19.5760000   6.5920000   9.6010000  20.8710000
   1.3990000  13.4970000   0.3560000   1.4190000  13.1570000  -0.5390000
   1.2990000  14.4430000   0.2510000  34.7360000  19.0510000  32.8210000
  35.4420000  19.6880000  32.7130000  34.0410000  19.3630000  32.2420000
  30.6880000  32.8250000  20.7270000  30.5160000  33.0900000  21.6310000
  30.5570000  33.6230000  20.2140000  43.1370000  13.1000000  41.4060000
  43.0580000  13.9590000  40.9920000  43.7750000  12.6320000  40.8670000
  21.9880000  20.0010000  15.6640000  21.8300000  19.8910000  16.6020000
  22.6360000  19.3290000  15.4500000  26.4580000  11.1640000   2.1620000
  26.1520000  10.5180000   2.7990000  27.2860000  10.8090000   1.8400000
   2.5570000  26.2520000  33.5930000   2.3620000  26.8210000  34.3370000
   3.2820000  25.7040000  33.8940000  32.5940000  35.9310000  25.6760000
  31.9090000  35.3270000  25.9580000  32.1750000  36.4740000  25.0080000
  21.0440000  14.9800000   3.5610000  20.8190000  14.5430000   4.3830000
  20.2110000  15.3160000   3.2320000  14.0520000  15.1280000  11.8800000
  14.5610000  14.3490000  12.1030000  14.5560000  15.5530000  11.1850000
  10.7090000  35.3550000  28.3660000  11.3100000  35.5850000  29.0750000
   9.9730000  35.9580000  28.4710000  35.2850000  27.5540000   4.2690000
  36.1480000  27.5310000   4.6810000  35.4680000  27.6220000   3.3320000
  40.2080000  23.9100000  22.5200000  39.7640000  24.6060000  22.0360000
  41.0840000  24.2580000  22.6920000  34.3330000  39.6080000   7.2660000
  33.5030000  40.0600000   7.4150000  34.5990000  39.8790000   6.3870000
  32.1810000   7.9240000  21.2510000  31.7980000   8.7400000  21.5730000
  33.1130000   8.1200000  21.1540000  14.8100000   4.7400000   4.6790000
  14.1590000   5.3410000   4.3140000  14.3070000   3.9650000   4.9280000
  16.5710000  37.4950000   4.5510000  16.5450000  36.9620000   5.3460000
  16.5330000  36.8600000   3.8360000  41.3060000  41.7570000  31.4020000
  41.2890000  42.0530000  30.4910000  40.5370000  42.1660000  31.8000000
  35.4200000  22.9230000   7.8850000  34.8380000  22.1670000   7.9660000
  35.4510000  23.1010000   6.9450000   6.1610000   6.2830000  17.5440000
   5.4840000   5.9190000  16.9740000   5.7920000   6.2170000  18.4250000
   4.9300000  16.4820000   9.1410000   4.5300000  15.9610000   8.4450000
   4.6980000  16.0220000   9.9480000  20.7210000  35.9030000  18.8660000
  21.3950000  35.7010000  19.5150000  19.9080000  35.9470000  19.3700000
   1.0300000  23.5630000  25.3480000   0.4830000  23.0620000  25.9530000
   0.4450000  23.7840000  24.6230000  27.1290000  21.9840000   6.9610000
  28.0520000  21.7520000   6.8580000  26.7670000  21.2890000   7.5100000
   0.9670000  32.2490000   5.3220000   1.3070000  32.9110000   5.9250000
   0.5770000  32.7530000   4.6080000  25.1550000  21.3320000  16.0260000
  25.8140000  20.6730000  16.2440000  24.5620000  21.3340000  16.7780000
   4.5190000  29.8350000  21.6270000   5.0450000  29.4590000  22.3330000
   3.6590000  29.4260000  21.7250000  36.4140000  15.5630000   9.2290000
  36.5810000  14.6370000   9.4040000  36.8030000  15.7180000   8.3690000
  31.7570000  27.6300000   1.7440000  31.6980000  28.4320000   2.2620000
  31.6630000  26.9240000   2.3830000   4.8320000  37.6880000  23.1950000
   4.8850000  36.8100000  22.8180000   4.4180000  38.2160000  22.5130000
  11.9450000   6.6260000  11.0040000  12.7880000   7.0770000  11.0260000
  11.5520000   6.8090000  11.8570000  39.6630000  23.2460000  16.4040000
  40.3460000  23.3560000  15.7430000  39.4050000  22.3270000  16.3310000
   8.5340000   8.6600000   5.0800000   8.7850000   7.9320000   4.5120000
   7.6380000   8.4560000   5.3500000  37.9990000  41.6310000  34.9310000
  38.8960000  41.9330000  35.0730000  37.4520000  42.3280000  35.2940000
  35.5530000  41.4210000   9.3360000  35.7050000  41.3380000  10.2780000
  35.5020000  40.5180000   9.0220000   2.9510000  11.7160000  23.4390000
   3.3970000  12.5620000  23.4080000   3.4980000  11.1780000  24.0130000
  36.5460000  22.3920000  41.8550000  35.7010000  22.3720000  42.3050000
  36.3330000  22.2120000  40.9390000  36.2300000  21.1740000   3.4550000
  35.3840000  20.7580000   3.6230000  36.8160000  20.4480000   3.2390000
  33.8660000  26.8070000  29.1770000  33.4190000  26.4650000  29.9510000
  34.7770000  26.5350000  29.2870000  17.7110000  28.1690000   3.1370000
  17.7030000  29.0960000   3.3760000  17.1620000  27.7460000   3.7970000
  25.4120000  28.0320000   4.0180000  26.2260000  27.5310000   3.9710000
  25.6360000  28.8030000   4.5400000  34.9240000  14.7690000  13.1680000
  34.3170000  15.5090000  13.1460000  35.6940000  15.0770000  12.6900000
  25.8500000  17.2490000   9.7620000  25.1990000  17.9480000   9.8130000
  26.6620000  17.6940000   9.5210000  41.7910000  26.8800000   0.7350000
  41.0400000  26.8620000   0.1420000  42.2040000  26.0240000   0.6260000
   0.2200000  34.3350000  22.2300000  -0.6780000  34.1830000  22.5240000
   0.7010000  34.5490000  23.0290000  13.5390000  33.0900000  21.9650000
  12.5990000  32.9100000  21.9690000  13.6100000  33.9990000  22.2570000
  12.8110000  40.6140000  39.9560000  12.8690000  40.2880000  40.8540000
  13.4540000  40.0960000  39.4710000  11.4900000  15.7110000  23.9860000
  10.5690000  15.5310000  23.8000000  11.5750000  16.6590000  23.8830000
  10.6580000   2.2370000  28.8900000  11.1060000   1.4700000  28.5360000
  10.2420000   2.6450000  28.1300000  25.8390000  22.1990000  29.6840000
  26.6710000  21.7430000  29.8090000  25.9590000  23.0410000  30.1220000
   9.4680000   3.2950000   7.7190000  10.0300000   3.3560000   8.4910000
   9.0330000   4.1460000   7.6700000  19.0120000  32.9730000  17.3040000
  19.6540000  32.5640000  17.8840000  18.1640000  32.7170000  17.6670000
   0.7200000  17.8560000  27.6360000   0.5080000  17.7750000  28.5660000
   0.9510000  18.7780000  27.5230000  36.9440000  12.8350000   9.8320000
  36.7650000  12.5300000   8.9420000  36.2400000  12.4580000  10.3600000
  44.1570000  23.5500000  15.9650000  44.4540000  23.6040000  16.8740000
  44.6090000  24.2690000  15.5230000  16.5170000   8.5160000   0.4810000
  16.7370000   9.2780000  -0.0540000  16.5990000   8.8260000   1.3830000
  28.4210000  30.5350000  26.6580000  28.9120000  30.1920000  27.4050000
  27.7320000  31.0720000  27.0500000  28.4910000  36.7810000  22.9120000
  28.1490000  37.4990000  23.4450000  29.3050000  37.1230000  22.5430000
   1.7830000   1.7440000  27.4100000   1.7690000   2.6980000  27.3370000
   0.8690000   1.5020000  27.5630000  32.3830000  32.9300000   4.7700000
  32.5610000  33.3090000   3.9090000  33.2290000  32.5920000   5.0620000
   6.4420000  40.7850000  30.1460000   5.7830000  40.4890000  29.5180000
   5.9350000  41.1710000  30.8610000  15.1370000  31.5850000  25.1500000
  14.3340000  31.2590000  25.5580000  15.0430000  31.3600000  24.2240000
   8.0330000  36.0750000   0.8870000   7.1670000  36.4100000   1.1200000
   7.8630000  35.4310000   0.1990000  35.0370000  34.5720000   7.0230000
  35.1410000  35.4320000   7.4310000  35.3440000  33.9540000   7.6860000
  13.6310000  35.8670000   9.0230000  13.6790000  35.5000000   8.1400000
  12.7730000  36.2900000   9.0610000  21.8810000  32.6140000  32.2830000
  22.5320000  33.3130000  32.3420000  21.6970000  32.5370000  31.3460000
   8.2960000   5.5550000   8.8780000   7.9200000   6.3400000   8.4790000
   8.5970000   5.8450000   9.7390000  41.2340000  34.1840000  32.6430000
  41.3090000  33.6920000  33.4600000  42.1040000  34.5620000  32.5100000
  17.6360000  33.0180000  38.3660000  16.9280000  32.6610000  38.9020000
  17.9150000  33.8060000  38.8320000  21.6510000  23.7500000  23.8540000
  21.5520000  22.9180000  24.3170000  20.8820000  24.2590000  24.1090000
  19.4750000  13.0370000  26.6910000  19.4240000  12.2060000  27.1620000
  20.0960000  12.8730000  25.9820000   7.6400000  14.1900000  38.4830000
   7.0450000  13.6490000  37.9640000   8.3270000  13.5870000  38.7660000
  26.8750000  18.0990000   1.8740000  26.7860000  17.4740000   2.5930000
  26.0080000  18.1250000   1.4700000  38.3150000  12.9850000  17.5580000
  38.4310000  12.5050000  16.7380000  37.4140000  12.7960000  17.8210000
  32.5240000   3.6970000  18.9570000  32.4090000   2.7480000  19.0100000
  32.9420000   3.9340000  19.7840000  22.7630000  25.2800000   1.4940000
  23.0150000  24.6660000   2.1840000  22.7660000  24.7560000   0.6940000
  37.5810000  34.4240000   0.5530000  38.2900000  34.6640000   1.1490000
  37.3840000  33.5120000   0.7690000   5.8250000   2.5160000  13.5660000
   6.1220000   1.8480000  12.9480000   6.5520000   2.6120000  14.1820000
  36.2930000  33.5850000  34.1610000  36.6670000  32.7040000  34.1470000
  35.8070000  33.6530000  33.3390000  30.1940000  34.2920000  23.3550000
  30.1920000  35.2370000  23.2040000  31.1130000  34.0770000  23.5150000
  15.3260000  38.9880000  16.4120000  15.0110000  38.8410000  15.5200000
  14.6010000  38.7080000  16.9710000  35.0800000  34.8270000  13.3250000
  35.5980000  35.0430000  12.5490000  34.7690000  35.6720000  13.6480000
   6.1840000  26.6890000  21.5720000   6.3680000  26.1570000  20.7980000
   5.5930000  26.1500000  22.0990000  43.2440000  18.9130000  10.8770000
  42.4930000  19.3160000  10.4410000  43.3390000  19.4030000  11.6930000
  37.5290000  39.7660000  17.2490000  36.9470000  40.4440000  17.5930000
  36.9630000  39.0040000  17.1280000  41.2960000   4.5680000   3.9950000
  40.8020000   3.8500000   3.5990000  41.0450000   5.3400000   3.4880000
  40.2250000  37.2710000  37.0360000  39.2810000  37.2080000  37.1840000
  40.3080000  37.7760000  36.2270000  39.4350000  38.4480000  24.1730000
  40.2220000  38.4610000  23.6290000  38.9640000  37.6620000  23.8940000
  12.8120000  18.3560000  25.8890000  12.1670000  18.2310000  25.1930000
  13.0190000  17.4700000  26.1860000  36.1640000  37.0510000  25.0410000
  35.6160000  36.2660000  25.0420000  36.1990000  37.3160000  24.1220000
   3.7570000  31.1520000   7.3090000   4.6390000  30.8680000   7.5500000
   3.4390000  31.6240000   8.0790000  38.4530000  32.9180000   5.4160000
  38.1310000  32.6980000   6.2910000  38.9240000  32.1350000   5.1300000
   8.2960000  14.1510000   7.1210000   8.4090000  13.2010000   7.1510000
   8.1820000  14.4080000   8.0360000  17.3790000  26.0020000  26.5510000
  17.7150000  25.6360000  27.3690000  16.4870000  25.6600000  26.4840000
  16.2250000  15.2320000  14.9300000  16.3760000  14.3220000  14.6750000
  15.3120000  15.2520000  15.2170000  35.6720000   6.3600000  39.4550000
  35.0150000   5.7860000  39.8490000  35.2390000   6.7260000  38.6840000
  35.0410000  30.6130000  21.8510000  35.5130000  29.9820000  22.3960000
  34.2250000  30.7750000  22.3240000   1.3070000  39.4470000   1.6500000
   1.1330000  40.3610000   1.4250000   2.2540000  39.3520000   1.5510000
  43.6450000  14.3710000   7.9480000  43.6700000  15.1760000   7.4310000
  43.2140000  14.6250000   8.7650000  12.1990000   9.6110000  25.2390000
  12.2610000   9.1880000  24.3830000  11.4220000   9.2240000  25.6420000
  16.1340000   5.7850000   0.5220000  15.1830000   5.7140000   0.4430000
  16.3090000   6.7250000   0.4770000  19.7320000  31.4160000  21.3950000
  19.3840000  30.6270000  20.9810000  20.6810000  31.3360000  21.3030000
  19.4870000  27.2430000  15.9580000  19.0450000  28.0920000  15.9810000
  18.8030000  26.6240000  15.7050000  44.6010000  37.4550000   7.6330000
  44.5130000  36.8070000   8.3320000  45.5340000  37.6680000   7.6190000
  32.3930000  14.0680000  38.2120000  33.2360000  13.8710000  38.6210000
  31.8530000  13.2980000  38.3930000  43.6270000  41.7190000  41.3670000
  43.2750000  42.1040000  42.1700000  44.1240000  42.4280000  40.9600000
  39.2170000  40.1420000  26.4010000  39.8420000  40.8680000  26.4030000
  39.4710000  39.6090000  25.6470000  10.5570000  42.6770000  28.3200000
  11.2060000  42.6540000  29.0230000   9.8280000  42.1510000  28.6500000
  36.0300000  40.5810000  26.0640000  36.9360000  40.3480000  25.8600000
  35.5250000  40.2560000  25.3190000   8.4610000  29.0320000  20.5670000
   8.0570000  28.4480000  21.2070000   8.6010000  29.8500000  21.0430000
  26.5210000  16.1780000  31.8560000  26.3590000  16.3740000  30.9330000
  26.8830000  15.2920000  31.8530000  13.3810000  33.9560000  31.4360000
  14.1130000  33.4730000  31.8210000  13.6490000  34.8730000  31.4820000
   8.3940000  34.1760000  40.9650000   9.1030000  34.3740000  40.3540000
   8.0930000  33.3050000  40.7070000  21.3230000  18.6010000  21.1160000
  21.7470000  18.2900000  20.3170000  21.0600000  19.4990000  20.9140000
  32.4520000  11.2570000  37.3910000  32.1100000  11.5780000  36.5570000
  33.1380000  11.8820000  37.6250000  10.9890000  11.9800000  24.5890000
  11.3150000  11.1270000  24.8750000  11.7640000  12.4330000  24.2570000
  44.2010000  26.9070000   9.2810000  44.3540000  25.9760000   9.4400000
  44.9900000  27.3390000   9.6070000  27.2940000  40.9670000   2.5450000
  28.1280000  40.6250000   2.2230000  27.1600000  41.7760000   2.0530000
  21.0630000  31.9500000  18.7190000  21.9940000  32.1050000  18.5610000
  21.0240000  31.0540000  19.0540000   1.1380000  28.4560000   9.5710000
   1.8440000  27.9160000   9.9260000   1.5050000  28.8360000   8.7730000
  38.6670000  27.6150000   2.3640000  39.2150000  28.3710000   2.5760000
  38.2640000  27.3700000   3.1970000  11.2590000   0.8180000  35.8960000
  11.7880000   0.7590000  36.6910000  11.5960000   0.1230000  35.3310000
  12.4210000  42.7480000   7.2440000  12.8060000  43.5520000   7.5950000
  11.5200000  42.9890000   7.0280000  37.7540000  30.7870000  40.1500000
  38.0700000  31.2070000  39.3510000  37.0050000  31.3170000  40.4210000
  22.3430000  22.6830000  20.7370000  22.5710000  22.2670000  21.5680000
  21.3900000  22.6110000  20.6870000   9.8130000  17.6570000  38.7920000
   9.4740000  17.1910000  38.0280000   9.9080000  18.5630000  38.4990000
  34.7120000   3.7970000  36.7380000  34.5980000   2.8670000  36.9320000
  34.1150000   4.2420000  37.3400000  38.0150000  11.6100000  15.1430000
  37.0860000  11.8390000  15.1070000  38.3620000  11.8830000  14.2940000
  44.8330000  27.3380000  31.2740000  44.6720000  28.2670000  31.1140000
  45.0760000  27.2930000  32.1990000  19.8640000   6.1220000  20.6570000
  19.3870000   6.8640000  20.2860000  19.4310000   5.3520000  20.2900000
  29.2960000   8.4460000  15.4820000  30.0620000   8.2730000  16.0290000
  28.8530000   9.1770000  15.9130000   9.6690000  18.6660000  41.9500000
   9.3280000  19.5260000  41.7060000   8.9500000  18.0620000  41.7670000
  33.0160000  40.9740000  35.6980000  33.8520000  40.8490000  35.2470000
  32.7840000  40.1020000  36.0170000  32.3560000  19.0640000   9.1900000
  32.3430000  18.3800000   8.5200000  31.5110000  19.5050000   9.0990000
  41.4160000  18.8050000  31.8940000  40.5910000  18.3250000  31.8290000
  42.0800000  18.1260000  32.0090000   6.5100000  20.8230000  40.7120000
   7.3840000  21.2100000  40.6710000   5.9550000  21.4330000  40.2260000
  29.6930000  25.6510000  14.7250000  29.6180000  24.6970000  14.7160000
  30.2960000  25.8510000  14.0100000   3.6900000   9.1760000  20.1480000
   4.6360000   9.3110000  20.0900000   3.5620000   8.2640000  19.8890000
  40.9250000  32.8160000  30.2840000  40.5230000  31.9710000  30.4810000
  41.1350000  33.1870000  31.1410000  45.1440000  20.8150000  33.2110000
  45.1040000  19.8730000  33.0470000  44.4530000  20.9770000  33.8530000
  30.6300000  37.3740000  21.1030000  31.4930000  37.6830000  20.8260000
  30.3930000  36.7120000  20.4540000  11.7540000  36.1310000  19.7830000
  10.9510000  36.6520000  19.7780000  11.4530000  35.2290000  19.8960000
  13.3580000  21.8030000  24.0250000  12.6100000  21.6550000  24.6040000
  14.0620000  21.2760000  24.4040000  15.7940000  28.3740000   7.3730000
  15.4750000  28.8400000   8.1450000  15.9720000  27.4860000   7.6850000
  44.1590000  17.7990000  25.4620000  44.9380000  17.6570000  26.0000000
  44.2890000  18.6640000  25.0740000  15.5130000  37.0420000  36.8650000
  15.5750000  36.0930000  36.7550000  15.7990000  37.4000000  36.0250000
  21.7070000  38.2560000  35.8230000  21.9160000  37.3410000  36.0120000
  22.3680000  38.5250000  35.1860000   1.5920000  29.5040000   6.4800000
   0.8110000  30.0490000   6.5760000   2.3230000  30.1190000   6.5350000
   4.5830000  27.8350000  19.2710000   3.6780000  28.0010000  19.5370000
   5.1030000  28.0500000  20.0450000  45.1600000  31.2510000   7.6180000
  44.8600000  31.8610000   8.2920000  45.4810000  31.8130000   6.9120000
  45.0760000  43.2340000  28.4310000  45.9040000  42.7660000  28.3220000
  44.4880000  42.5910000  28.8280000  36.5630000  28.1520000  21.6880000
  36.0430000  27.4540000  22.0870000  37.0830000  28.5050000  22.4100000
  11.6580000  33.5000000   7.1400000  11.0290000  33.5930000   7.8550000
  11.3960000  32.6950000   6.6930000   9.2550000  21.2830000  41.5570000
   9.7200000  21.8300000  42.1910000   9.9020000  21.1070000  40.8740000
  42.0990000  26.4130000  21.4880000  41.3300000  26.9520000  21.3020000
  42.8310000  27.0300000  21.4770000  37.6300000  16.9590000  37.4150000
  37.3430000  17.8720000  37.4270000  37.1480000  16.5660000  36.6870000
  29.9790000  14.9880000   3.8630000  29.5150000  14.1510000   3.8600000
  30.3480000  15.0610000   2.9830000  43.6230000   1.9100000   2.3490000
  44.2440000   2.1480000   3.0370000  42.8000000   1.7570000   2.8120000
  14.1480000  14.1790000  28.9980000  13.3070000  13.7360000  29.1050000
  14.5460000  13.7590000  28.2360000  35.3220000   7.2150000   6.7930000
  35.5240000   7.6450000   7.6240000  35.8730000   7.6630000   6.1510000
  20.6500000  10.4320000  11.3820000  20.8940000   9.6560000  10.8780000
  20.8180000  11.1650000  10.7900000  11.4440000  12.8970000   0.1570000
  11.4490000  13.3370000  -0.6930000  11.3350000  13.6040000   0.7920000
   5.3050000  39.4240000   7.7850000   4.7340000  40.0110000   7.2900000
   5.5440000  38.7390000   7.1590000  43.3400000  16.6780000  17.5660000
  43.7180000  15.7990000  17.5450000  43.7630000  17.1030000  18.3130000
   0.9420000  38.6770000  32.6220000   0.3710000  39.4000000  32.3610000
   1.8150000  39.0670000  32.6730000  28.7160000  38.0370000  14.4520000
  27.9520000  37.8330000  13.9130000  29.1280000  37.1880000  14.6150000
   8.6630000  24.3770000  24.4190000   8.1720000  23.5610000  24.3280000
   9.1420000  24.4620000  23.5950000  31.4310000   2.6170000   2.5570000
  32.2050000   3.0020000   2.1450000  31.5470000   1.6730000   2.4510000
  42.9000000  13.0620000   5.7400000  43.2400000  13.4740000   6.5350000
  43.6050000  12.4820000   5.4510000  33.7370000  38.1060000  35.7010000
  34.4420000  38.7330000  35.5410000  33.8430000  37.4450000  35.0170000
  14.9110000  17.7760000  10.1770000  15.5230000  18.5120000  10.1980000
  14.0820000  18.1610000   9.8920000  21.1910000  -0.1950000   3.1270000
  20.7320000  -0.1100000   3.9620000  20.7770000   0.4550000   2.5580000
  10.6600000  20.2560000   8.4450000  10.0210000  19.6050000   8.1520000
  10.1290000  20.9790000   8.7780000  38.5960000  42.9290000  38.3850000
  38.7400000  42.8820000  39.3300000  39.1720000  42.2560000  38.0220000
  43.0110000  35.5710000  23.1320000  42.2400000  35.4400000  22.5800000
  43.2330000  36.4940000  23.0170000   1.9160000  15.6310000  24.9030000
   1.7560000  15.2750000  25.7760000   2.3660000  14.9280000  24.4360000
  32.4690000  34.6190000  30.8810000  31.7730000  34.0370000  30.5770000
  32.1660000  35.4970000  30.6460000  11.6470000  12.8400000  27.6770000
  11.9250000  11.9340000  27.5380000  10.9670000  12.9850000  27.0190000
  11.5910000  29.7540000  17.9860000  11.0850000  30.3840000  17.4730000
  11.6950000  30.1710000  18.8410000  43.9470000  11.9390000   8.8320000
  43.7550000  12.0220000   9.7660000  43.7760000  12.8110000   8.4740000
   2.4330000  12.4570000  30.5030000   2.7310000  11.5550000  30.3830000
   1.7390000  12.3940000  31.1590000   6.2650000  25.8760000  12.8860000
   6.3500000  26.6410000  12.3170000   5.3730000  25.9300000  13.2280000
  30.6270000  26.2570000  10.5070000  29.8010000  26.6710000  10.2550000
  31.2940000  26.7380000  10.0180000   0.4430000  12.8510000  20.0870000
   0.8580000  12.3640000  20.7990000   1.1650000  13.3010000  19.6500000
  27.5620000   5.9850000  38.6120000  27.8420000   5.2100000  38.1240000
  28.1530000   6.6790000  38.3200000  33.1070000  36.1830000   9.7490000
  33.0140000  37.0760000  10.0790000  32.8960000  36.2490000   8.8170000
   7.6410000  37.4360000  10.6200000   6.9100000  37.2030000  10.0480000
   8.3360000  36.8220000  10.3830000  29.0780000  33.8310000  41.0430000
  29.6050000  33.1660000  40.6000000  29.3550000  33.7850000  41.9580000
  27.3550000  33.0930000  20.1860000  26.6510000  32.6670000  19.6960000
  27.2800000  32.7380000  21.0710000   4.8740000   9.1250000   7.1060000
   4.8890000  10.0430000   6.8360000   4.0220000   9.0140000   7.5290000
  27.2170000  32.6240000  30.9790000  26.5010000  32.1450000  31.3980000
  26.8170000  33.0260000  30.2080000  20.2110000  38.9940000  16.3980000
  19.8010000  39.3010000  17.2070000  19.5200000  38.5070000  15.9490000
   3.7070000  10.0790000  29.7260000   3.9780000   9.5440000  30.4710000
   3.2380000   9.4720000  29.1530000   1.1610000  15.1860000  27.3180000
   0.9590000  16.1190000  27.3910000   0.4640000  14.7520000  27.8090000
  42.9770000  12.6220000  11.3120000  43.4620000  12.0330000  11.8890000
  43.0810000  13.4860000  11.7090000   4.3010000   6.8290000  34.9180000
   3.4450000   7.1780000  35.1670000   4.1070000   6.1790000  34.2420000
  24.5490000  39.2340000  41.8240000  25.4400000  38.8830000  41.8130000
  23.9990000  38.4860000  42.0550000  23.2530000   9.9940000  39.9520000
  23.9110000  10.2310000  40.6050000  23.5840000  10.3620000  39.1330000
  16.8830000   7.4130000  32.0430000  17.5450000   7.9600000  32.4660000
  16.8570000   7.7250000  31.1380000  34.2570000  34.8420000  35.5830000
  34.7310000  34.1380000  35.1390000  34.6430000  34.8760000  36.4590000
   3.9780000  28.5210000  13.5290000   4.0670000  29.1070000  14.2810000
   3.6030000  27.7190000  13.8930000  43.8590000   8.5810000   5.2230000
  44.1870000   9.3120000   4.7000000  43.4500000   8.9940000   5.9830000
  11.0630000   2.0980000  39.0270000  10.5020000   1.3220000  39.0210000
  11.9540000   1.7480000  39.0170000  20.7690000   4.9220000   6.7300000
  20.4390000   4.1260000   7.1470000  20.4470000   4.8720000   5.8300000
  29.4540000  28.4290000  24.0320000  29.5690000  28.8990000  24.8580000
  28.5840000  28.6870000  23.7280000  30.0600000  40.7470000  38.4640000
  30.5350000  40.8180000  39.2920000  30.4790000  40.0160000  38.0090000
   9.0960000  22.0370000  13.2300000   9.6540000  22.5130000  13.8450000
   8.9160000  22.6680000  12.5330000  26.0010000   9.9010000  24.4620000
  25.5100000   9.3260000  25.0480000  26.2350000   9.3440000  23.7200000
  33.8930000  35.2610000  21.6690000  34.1850000  36.1690000  21.7560000
  33.9690000  35.0740000  20.7330000  15.0190000  22.4970000  12.7150000
  14.5290000  21.8730000  12.1790000  14.3710000  23.1550000  12.9680000
   1.8680000  40.8220000  21.0000000   2.2940000  41.6600000  21.1830000
   1.8230000  40.7800000  20.0450000  25.1810000  32.1780000   8.0590000
  25.1640000  33.0890000   8.3520000  24.3200000  31.8330000   8.2970000
  18.9310000  36.5140000  11.6940000  19.1970000  36.7040000  10.7940000
  19.6700000  36.0320000  12.0650000   3.3190000   7.7400000  23.0500000
   2.5200000   7.3520000  22.6930000   4.0210000   7.3930000  22.4990000
   9.1820000  19.3150000  11.7060000   9.1820000  19.0730000  10.7800000
   9.0550000  20.2640000  11.7050000  30.4590000  24.7690000   7.2600000
  31.3830000  24.7230000   7.0170000  30.3260000  24.0190000   7.8410000
  42.7380000   7.7140000  14.6370000  42.3030000   6.8640000  14.6930000
  42.1060000   8.2780000  14.1920000  29.9340000  35.3430000  35.1490000
  30.6080000  34.9240000  34.6140000  29.1310000  34.8680000  34.9370000
  31.5990000   8.1530000  16.7130000  31.8420000   7.4760000  17.3440000
  31.9930000   8.9540000  17.0580000  38.5730000  33.0820000  17.2430000
  38.9810000  33.2810000  18.0860000  37.6350000  33.0590000  17.4300000
  20.6850000   8.1850000  22.4730000  20.5070000   7.2590000  22.6430000
  21.5140000   8.1850000  21.9940000  43.8790000  34.5600000  33.2970000
  44.4140000  34.9430000  32.6020000  44.4420000  34.5770000  34.0700000
  16.2910000  43.7140000  35.6180000  15.6980000  43.7870000  34.8710000
  15.9160000  43.0150000  36.1540000  34.4680000   7.6510000  37.2750000
  34.7990000   8.0490000  36.4700000  33.5640000   7.9600000  37.3420000
  41.2050000  31.9080000  22.8620000  42.0180000  31.5680000  22.4900000
  41.4080000  32.0590000  23.7850000  21.6460000  35.1200000  13.7000000
  22.4230000  35.1470000  14.2590000  20.9110000  35.1230000  14.3120000
  24.7380000   3.0640000  16.1680000  25.0010000   3.0320000  15.2480000
  24.9040000   3.9690000  16.4330000  20.5140000  42.0910000  18.1570000
  21.2960000  41.6150000  17.8770000  20.6770000  42.9960000  17.8930000
   3.5810000  39.0600000   0.4830000   3.9820000  38.6530000  -0.2850000
   4.2130000  39.7240000   0.7590000   2.6720000  35.5070000  15.6240000
   2.6120000  36.4620000  15.6040000   3.4660000  35.3070000  15.1290000
  35.7700000   4.6710000   4.8200000  35.5990000   5.2730000   5.5440000
  35.3820000   3.8430000   5.1010000  10.7290000  43.4180000  17.3810000
  10.1620000  43.2570000  18.1350000  11.6090000  43.4830000  17.7530000
  24.7060000   9.8480000  11.7660000  23.9750000   9.8250000  12.3840000
  24.8340000  10.7780000  11.5820000   6.9980000  18.6510000  19.5850000
   6.7580000  18.8270000  18.6750000   7.8890000  18.9900000  19.6680000
  18.3560000  24.9250000  19.2960000  17.5810000  24.7720000  19.8360000
  18.9550000  24.2170000  19.5300000   2.2910000  42.8820000  26.2700000
   2.4960000  43.8170000  26.2930000   1.8770000  42.7500000  25.4170000
  22.5370000  11.5450000  32.5640000  22.8590000  12.3260000  32.1130000
  23.3100000  11.1820000  32.9960000   2.2880000  16.6600000  19.1520000
   2.5670000  17.5750000  19.1640000   2.0350000  16.4980000  18.2440000
   7.5090000  25.8910000  30.6290000   6.7290000  26.0640000  30.1020000
   7.8930000  25.1060000  30.2390000  30.7720000  16.1720000  10.4600000
  30.4440000  15.2800000  10.5710000  31.5540000  16.0740000   9.9170000
  18.6670000  18.9280000   3.1840000  18.7580000  18.1840000   2.5870000
  18.4510000  18.5320000   4.0280000  18.3800000  27.1760000  38.3140000
  18.1340000  26.2510000  38.3010000  19.3280000  27.1700000  38.4480000
  36.9710000  23.0980000  14.7360000  36.6100000  22.2130000  14.7950000
  37.6460000  23.1270000  15.4140000  25.5470000  14.7830000  38.7800000
  25.2110000  15.2240000  39.5610000  26.4790000  14.9990000  38.7650000
  17.8110000  23.2380000   7.5190000  17.4740000  23.1970000   6.6250000
  18.4520000  23.9490000   7.5020000  17.8740000  38.1780000  15.3780000
  17.4550000  37.3770000  15.0640000  17.1500000  38.7200000  15.6900000
  17.9220000   6.1650000   7.0540000  18.6220000   6.7770000   6.8230000
  17.5310000   6.5360000   7.8440000  32.4080000  17.2180000  34.5570000
  32.0550000  17.1840000  33.6680000  31.7530000  17.7050000  35.0570000
  30.1730000  20.1670000  18.2430000  29.6410000  20.2060000  19.0380000
  30.3420000  19.2340000  18.1130000  31.8070000  27.3470000  27.1650000
  32.6630000  27.2660000  27.5870000  31.7370000  26.5680000  26.6140000
  33.3490000  20.6570000  31.3780000  34.0480000  20.9580000  30.7980000
  32.5490000  21.0210000  30.9990000  41.3470000  27.1680000  32.4110000
  41.6050000  26.6190000  33.1510000  41.3240000  28.0560000  32.7690000
  13.3440000  38.8720000  24.5510000  13.3810000  39.4420000  25.3190000
  14.0760000  39.1570000  24.0040000  33.2950000  39.0020000   9.9080000
  32.7610000  39.5210000  10.5080000  32.9660000  39.2290000   9.0380000
  19.1920000  11.6410000  36.3270000  19.3880000  12.4880000  35.9250000
  19.7680000  11.5990000  37.0900000  42.7950000  23.2560000  29.2700000
  42.8580000  24.0050000  29.8630000  42.4970000  22.5350000  29.8260000
  38.6100000  10.5530000  32.8240000  39.2950000  11.1660000  32.5590000
  38.6310000  10.5700000  33.7810000  18.8530000  34.5880000   5.7400000
  18.3480000  35.3340000   6.0610000  18.6560000  33.8830000   6.3570000
  24.3840000   3.1750000   2.0250000  24.7110000   2.3450000   2.3720000
  25.1680000   3.6350000   1.7250000  43.3930000   1.0680000  25.7400000
  43.8360000   1.6820000  25.1550000  44.0150000   0.9260000  26.4540000
  32.9270000  12.3560000  33.8730000  33.2420000  13.1060000  34.3780000
  33.6210000  11.7020000  33.9560000  11.1320000  23.6360000  28.3750000
  11.8450000  22.9990000  28.3310000  11.4220000  24.3590000  27.8190000
  21.6460000   3.3270000  18.1390000  22.5690000   3.5110000  17.9660000
  21.5610000   3.4040000  19.0890000  45.1060000  40.9540000  16.3270000
  45.4320000  41.5060000  15.6160000  44.2700000  40.6180000  16.0050000
  19.5460000  17.6520000  41.5080000  19.5520000  18.5440000  41.1620000
  18.6250000  17.3900000  41.4780000  22.9080000   6.5460000   7.0840000
  22.0150000   6.2410000   7.2450000  23.4540000   5.9920000   7.6420000
  11.8340000  21.0630000  40.2590000  12.4700000  21.5430000  39.7290000
  12.3510000  20.6880000  40.9720000  24.1610000  26.9990000   9.4560000
  23.4020000  26.6630000   8.9780000  23.9640000  26.8190000  10.3750000
  31.1890000   8.5090000   1.9910000  31.7620000   7.7430000   2.0400000
  31.2750000   8.8150000   1.0880000   8.3740000  32.6330000  30.2340000
   8.8440000  32.3360000  31.0140000   9.0120000  32.5530000  29.5250000
  14.6530000  25.7640000  27.3940000  15.2950000  26.0780000  28.0300000
  13.9040000  25.4900000  27.9240000  29.0470000  23.9120000  36.4330000
  28.8560000  24.7480000  36.8590000  28.4070000  23.8530000  35.7230000
  17.3380000   5.9520000  28.3960000  17.3260000   6.8780000  28.6360000
  16.7450000   5.5340000  29.0200000   0.4990000   1.2610000  36.1310000
  -0.4510000   1.3750000  36.1060000   0.8480000   2.1520000  36.0940000
  19.5360000  10.1150000  18.0070000  20.1110000   9.7730000  17.3230000
  20.0110000   9.9530000  18.8220000   5.6990000   7.5040000  40.6160000
   6.2210000   7.1790000  39.8830000   6.2090000   8.2330000  40.9690000
  20.6690000  27.6210000   3.6730000  21.5630000  27.8600000   3.4300000
  20.2850000  27.2770000   2.8660000  26.4140000   7.9900000  31.5370000
  26.6570000   8.4800000  30.7520000  25.6850000   7.4360000  31.2570000
  38.1160000  19.9910000  25.3600000  38.8880000  19.6450000  25.8090000
  37.3750000  19.5800000  25.8060000  44.0650000  33.5250000   3.2520000
  44.3240000  33.8960000   2.4080000  43.6610000  32.6870000   3.0310000
  32.9540000  39.1270000  15.9460000  32.0710000  39.4930000  15.9890000
  33.3920000  39.4630000  16.7290000  23.7310000  14.8350000  25.8770000
  22.9390000  14.8570000  26.4130000  23.5610000  14.1540000  25.2260000
  14.2280000   5.2920000  35.2080000  14.2060000   6.1190000  35.6890000
  13.6400000   4.7150000  35.6950000  28.9950000  20.5320000  15.9100000
  29.1380000  21.4410000  15.6470000  29.5180000  20.4270000  16.7050000
   9.1670000  31.1020000  34.8220000   8.4210000  30.8390000  34.2820000
   9.8110000  31.4330000  34.1960000  13.9600000   0.4900000  13.4210000
  13.0080000   0.4980000  13.3260000  14.2380000  -0.3130000  12.9810000
   5.7250000  39.5820000  27.7390000   6.0290000  39.3060000  26.8750000
   5.5930000  38.7650000  28.2200000  42.8990000  25.8450000  30.2170000
  43.5240000  26.4030000  30.6800000  42.2340000  25.6360000  30.8730000
  23.0480000  31.0160000   3.2250000  23.8390000  31.1710000   3.7420000
  23.2070000  30.1790000   2.7880000  21.0320000   1.2790000  38.7820000
  21.1180000   2.2200000  38.9350000  21.2520000   0.8780000  39.6230000
  44.2740000  10.0120000  18.8810000  45.0320000   9.4600000  18.6890000
  43.6300000   9.7750000  18.2140000  26.1590000  40.9860000   5.1800000
  25.5640000  41.6890000   4.9200000  26.5980000  40.7320000   4.3690000
  16.4970000  11.4720000  19.8840000  17.2080000  11.3110000  20.5050000
  16.5940000  12.3930000  19.6420000  43.4220000  36.0270000  18.9300000
  42.4830000  35.8950000  19.0590000  43.5010000  36.9430000  18.6640000
  20.0380000  24.7200000  40.5330000  20.9580000  24.9350000  40.3840000
  19.7400000  24.3510000  39.7010000   2.1230000  18.3830000  31.2190000
   2.6920000  17.6320000  31.0550000   2.6940000  19.1440000  31.1160000
  44.3520000  40.6660000  35.0650000  44.8240000  41.4570000  35.3240000
  45.0360000  40.0610000  34.7790000  34.0120000  20.2690000  38.6360000
  33.5930000  21.1150000  38.7980000  34.0730000  20.2110000  37.6820000
  25.4120000   1.0130000   3.1360000  25.0260000   0.4000000   3.7620000
  26.2040000   1.3310000   3.5690000   0.2890000   5.1670000   0.4910000
   0.3070000   6.0730000   0.8000000   1.1130000   4.7910000   0.8020000
   9.3790000  34.6270000  36.6480000  10.1370000  34.7580000  36.0780000
   9.7270000  34.1530000  37.4040000  14.8400000  37.4250000  10.8500000
  15.2470000  36.8940000  11.5350000  14.4560000  36.7870000  10.2490000
   9.6850000   7.6060000   1.7560000   8.8740000   7.8730000   1.3210000
   9.4190000   6.9000000   2.3450000   1.1280000   3.9620000  36.2750000
   2.0680000   4.1450000  36.2850000   0.7840000   4.4380000  37.0310000
  36.6480000  19.2370000   7.2240000  37.2830000  18.9980000   7.8990000
  36.7580000  18.5700000   6.5460000  44.1050000  10.5980000  21.7670000
  45.0580000  10.5290000  21.8150000  43.8890000  10.3190000  20.8780000
  14.7470000  12.8860000  26.6770000  14.1490000  13.1770000  25.9890000
  14.8640000  11.9510000  26.5130000  44.3420000  43.6060000  12.6660000
  43.7190000  42.9910000  13.0510000  43.8430000  44.4160000  12.5560000
  29.6940000  35.7000000   4.2700000  29.6180000  35.2680000   5.1210000
  29.0350000  36.3940000   4.2940000   7.1790000   3.0610000  18.2470000
   7.7940000   3.2580000  18.9540000   7.0490000   2.1140000  18.2990000
  33.8010000  34.8040000  40.2080000  34.3370000  34.1900000  39.7060000
  34.3320000  35.5980000  40.2600000  13.9380000  22.9780000   5.6350000
  14.0150000  22.1510000   5.1580000  14.0850000  23.6520000   4.9720000
  34.4250000   4.2920000  28.8490000  34.4410000   3.3800000  28.5590000
  34.5520000   4.2450000  29.7960000  30.1840000  41.7380000   2.0090000
  30.6400000  41.0650000   2.5140000  29.9530000  41.3050000   1.1870000
  11.7200000  40.0440000  30.0130000  12.0870000  40.6920000  29.4110000
  10.8100000  39.9460000  29.7320000   9.7780000  42.3240000  14.9390000
  10.0630000  42.7700000  15.7370000  10.3830000  41.5880000  14.8460000
  10.2390000  29.7210000  10.1240000   9.6460000  30.2220000   9.5640000
  10.8150000  29.2610000   9.5130000  18.1060000  38.4270000  38.1250000
  18.3940000  39.0430000  37.4520000  17.3710000  37.9620000  37.7260000
   8.3050000   2.7180000  14.8720000   8.4330000   3.5720000  15.2850000
   8.9600000   2.1530000  15.2820000  37.2960000   0.4010000  15.5070000
  36.4140000   0.7610000  15.4160000  37.4210000   0.3100000  16.4510000
  12.5630000  31.9250000  38.6740000  12.1180000  31.3540000  38.0480000
  12.8450000  32.6770000  38.1530000  13.8550000  22.2810000  38.6360000
  14.0520000  22.7060000  39.4710000  14.3220000  21.4470000  38.6750000
  43.7550000  22.5400000   6.8370000  43.8560000  23.4560000   7.0950000
  43.1350000  22.1800000   7.4720000  26.4770000  41.6450000  11.9190000
  26.8930000  42.3120000  11.3730000  25.6030000  41.5390000  11.5440000
  32.6810000  16.8130000  40.9760000  32.4540000  16.9390000  40.0540000
  32.2620000  15.9860000  41.2150000  11.7220000  20.9670000  20.5210000
  12.2140000  20.1570000  20.3830000  11.0690000  20.7410000  21.1840000
   0.5730000  15.5120000  21.8040000   0.9800000  14.7960000  21.3160000
   1.2960000  16.1100000  21.9990000   7.1500000  13.0400000  12.0240000
   6.2640000  12.7830000  11.7700000   7.1490000  13.9960000  11.9600000
  28.6690000  10.3490000   0.9220000  28.7930000   9.7530000   0.1830000
  29.4600000  10.8870000   0.9310000  25.1870000  40.0010000  30.6470000
  26.0670000  39.8460000  30.9900000  25.2940000  40.7240000  30.0300000
  35.2470000  23.9270000   3.1640000  35.3540000  24.2500000   2.2690000
  35.6470000  23.0570000   3.1540000  38.1370000  39.5110000  33.1690000
  38.9090000  38.9630000  33.3110000  38.2300000  40.2240000  33.8010000
  29.9980000  27.3190000  41.8450000  30.4510000  27.4060000  42.6830000
  29.2090000  27.8520000  41.9420000  40.5760000  34.7640000  22.0600000
  39.6920000  35.0980000  22.2110000  40.5350000  33.8470000  22.3330000
   9.1210000   8.2240000  24.7790000   8.6630000   8.8230000  25.3680000
   8.4270000   7.6810000  24.4030000  32.5370000  28.2840000  23.1630000
  32.5210000  28.9220000  22.4500000  31.9520000  28.6520000  23.8260000
  32.6390000   1.1080000  35.1990000  33.1630000   1.0370000  35.9970000
  31.7390000   0.9630000  35.4900000  24.9090000   9.4680000  16.7960000
  24.0970000   9.2670000  16.3310000  25.1720000   8.6370000  17.1910000
   0.1110000  17.4060000   7.0560000  -0.7700000  17.1760000   6.7600000
   0.6660000  17.2650000   6.2890000  10.8870000  26.0310000  26.2150000
  11.6910000  25.9410000  25.7030000  10.1840000  25.8570000  25.5880000
  32.7950000  29.3650000  35.1860000  32.7190000  30.2830000  35.4460000
  33.3860000  29.3790000  34.4320000  32.8710000  24.4670000  42.0900000
  31.9760000  24.1290000  42.1150000  32.8670000  25.1020000  41.3740000
  32.8600000   7.1690000  14.3060000  32.4700000   7.3270000  15.1660000
  33.7910000   7.3520000  14.4290000  17.7770000  28.2840000  31.8610000
  17.8670000  27.3700000  31.5890000  18.3280000  28.7710000  31.2480000
  31.2980000  10.1050000  41.8800000  32.2150000  10.3670000  41.8060000
  31.1630000   9.4960000  41.1550000  25.4100000  10.6840000  29.7860000
  26.0980000  10.0550000  29.5710000  25.8370000  11.5380000  29.7240000
  23.7900000  20.4400000   6.4110000  22.9640000  19.9830000   6.5710000
  24.3650000  19.7720000   6.0390000   6.3900000  13.6690000   5.5260000
   6.9330000  13.6470000   6.3140000   6.1310000  14.5860000   5.4390000
  16.6430000  33.3850000  14.2250000  17.5950000  33.3360000  14.1390000
  16.4740000  34.2830000  14.5110000   7.2520000  27.9510000  16.3910000
   7.8310000  27.5150000  15.7650000   7.8440000  28.3980000  16.9940000
  28.1900000  34.4400000   9.4470000  27.9320000  33.5280000   9.5820000
  28.8340000  34.6110000  10.1340000  23.0220000  17.8240000  23.0350000
  22.3950000  18.2510000  22.4510000  22.4900000  17.4970000  23.7600000
  31.5260000  24.1700000  31.2900000  32.0620000  24.6880000  30.6890000
  31.4350000  23.3210000  30.8580000  38.4700000  35.9940000  12.6500000
  38.3010000  35.2070000  12.1320000  39.0530000  35.7000000  13.3500000
  13.4960000   4.0230000  31.6650000  13.1220000   3.3780000  32.2660000
  13.4420000   4.8520000  32.1390000  11.5450000  38.1010000  35.2820000
  11.2820000  38.2230000  34.3700000  11.2760000  38.9090000  35.7200000
  37.8980000  10.6830000  27.9850000  37.0670000  10.8060000  27.5280000
  37.6490000  10.4020000  28.8650000  23.2570000  21.2140000  23.0470000
  22.8490000  21.1470000  23.9100000  23.9320000  20.5360000  23.0480000
  36.4020000  16.9670000  11.5490000  35.8770000  17.7060000  11.2440000
  36.5900000  16.4630000  10.7570000  16.5280000   4.1610000  21.3190000
  17.0040000   3.4460000  21.7420000  16.4110000   3.8690000  20.4150000
  27.4420000  40.9180000  14.3870000  27.1230000  41.3480000  13.5940000
  26.7490000  40.3000000  14.6210000  22.8540000  12.1740000  13.2550000
  22.5720000  12.6680000  12.4850000  22.7040000  12.7690000  13.9890000
   8.5780000  35.0150000  18.2650000   8.0920000  34.2370000  18.5410000
   8.5570000  35.5930000  19.0270000   5.1760000   5.2680000   1.9190000
   5.4020000   4.8420000   2.7460000   4.3520000   5.7200000   2.1000000
  33.5910000  23.4340000  18.5590000  34.0930000  24.2420000  18.4440000
  32.7030000  23.7310000  18.7570000  42.6000000  40.7460000  37.2530000
  43.0120000  40.3100000  36.5070000  43.2910000  41.2970000  37.6200000
  34.9130000  17.3450000  20.1440000  33.9930000  17.0840000  20.1180000
  34.9390000  18.0700000  20.7680000  37.7250000  26.2420000   0.3450000
  36.8140000  26.4590000   0.5410000  38.2350000  26.8970000   0.8200000
  23.8120000  42.8840000   4.3480000  23.4110000  42.4200000   5.0820000
  23.1070000  43.4240000   3.9910000   1.9680000  33.0600000  41.6190000
   2.4510000  32.2990000  41.2960000   2.6330000  33.7420000  41.7140000
  12.7800000  16.7290000  13.7040000  13.0080000  16.2550000  14.5030000
  13.2410000  16.2600000  13.0080000  39.9820000  31.4780000  27.0270000
  39.5840000  32.0090000  27.7160000  39.5630000  30.6210000  27.1130000
  35.7000000  25.7420000  18.0840000  36.4100000  25.1230000  18.2510000
  35.6900000  25.8450000  17.1330000  33.1700000  43.1970000  15.4780000
  33.9350000  43.7720000  15.5200000  33.5370000  42.3180000  15.3790000
  45.5520000  40.3140000  24.9870000  45.5190000  40.0990000  24.0550000
  44.6770000  40.1000000  25.3130000  22.1930000  23.9040000  13.1010000
  21.5670000  23.2470000  12.7960000  23.0200000  23.6550000  12.6890000
  11.4280000  36.7650000  37.8880000  11.5250000  37.3640000  37.1480000
  11.3100000  37.3370000  38.6460000  44.8420000  39.8940000  22.1470000
  45.6330000  40.1990000  21.7020000  44.8860000  38.9400000  22.0880000
  15.5550000  32.7850000  32.2250000  15.5880000  31.8770000  31.9240000
  16.4650000  33.0060000  32.4210000   9.8170000  10.3110000   2.8820000
   9.6800000   9.4070000   2.5970000   9.0330000  10.5230000   3.3900000
  40.3970000  17.1410000  21.3270000  40.0480000  17.6700000  22.0440000
  40.0430000  17.5480000  20.5360000  11.2000000  18.4680000  16.2870000
  10.6200000  18.7370000  17.0000000  10.7190000  17.7750000  15.8350000
  24.8250000  12.4030000  11.0490000  24.2700000  13.1830000  11.0300000
  25.2270000  12.3740000  10.1810000  22.5000000  37.4220000  41.4430000
  21.9350000  38.0810000  41.0390000  21.9280000  36.6660000  41.5780000
  41.7870000  21.7240000  32.4410000  41.9590000  21.5810000  33.3720000
  41.6430000  20.8470000  32.0860000   9.7660000  16.8380000  27.1970000
  10.5800000  16.3530000  27.0620000   9.1000000  16.3150000  26.7500000
   6.0210000  16.5240000  25.5640000   6.4780000  17.3550000  25.6890000
   5.1440000  16.6780000  25.9150000  18.1010000  25.8250000  12.2320000
  17.8700000  25.7440000  13.1570000  18.2420000  24.9250000  11.9390000
  24.6120000  43.4760000  26.4790000  25.4000000  44.0160000  26.5410000
  24.3370000  43.3490000  27.3870000  34.2690000  13.9960000  28.7490000
  34.3390000  13.7130000  27.8370000  33.6860000  14.7550000  28.7200000
   1.4420000  39.2570000  27.4050000   1.7530000  39.9900000  27.9350000
   1.1350000  39.6610000  26.5940000  26.9050000   3.5880000  26.1230000
  26.5970000   4.0770000  25.3600000  27.0600000   4.2560000  26.7900000
  18.7370000  39.3000000  11.2170000  19.4640000  39.3690000  10.5980000
  18.6320000  38.3590000  11.3590000  29.2180000  17.1160000  17.6770000
  28.5670000  17.2270000  16.9840000  28.9420000  16.3260000  18.1410000
  10.4110000  40.4800000  35.9890000  10.4170000  40.8960000  36.8510000
   9.6540000  40.8600000  35.5440000  26.1400000  18.3380000  36.7260000
  26.5680000  17.8210000  36.0430000  25.2910000  17.9150000  36.8510000
  26.8610000  35.7230000  21.0550000  27.1520000  34.8650000  20.7460000
  27.5030000  35.9690000  21.7200000  17.1120000  41.9240000   2.5330000
  16.3520000  41.5500000   2.0860000  17.6140000  41.1640000   2.8280000
   3.0440000   6.6530000   2.7700000   2.2890000   6.9770000   2.2800000
   3.0770000   7.2040000   3.5520000   6.1790000   3.3830000  32.8800000
   6.4720000   4.1230000  33.4130000   5.4310000   3.0250000  33.3580000
  20.4640000  13.0620000  22.2700000  19.6570000  12.7110000  22.6490000
  20.7220000  12.4140000  21.6140000   8.2510000  26.0500000   6.6760000
   7.4230000  26.1120000   7.1520000   8.3830000  25.1110000   6.5450000
  22.6760000   9.8230000  27.5400000  22.1560000   9.0820000  27.8510000
  22.9810000  10.2540000  28.3390000   3.5710000   5.9580000  40.8830000
   4.4490000   6.3290000  40.8040000   2.9870000   6.7160000  40.8630000
   8.2110000  10.2430000  26.5140000   7.2870000  10.3750000  26.7260000
   8.6480000  10.2020000  27.3650000   8.9890000   6.0010000   3.7370000
   8.1060000   5.7160000   3.9740000   9.5290000   5.2170000   3.8400000
  37.8320000   9.8990000  24.6140000  38.4250000   9.6770000  23.8960000
  38.3670000  10.4200000  25.2130000  41.6840000  19.0540000  27.1400000
  41.7650000  18.3000000  26.5550000  41.7140000  19.8130000  26.5570000
  45.0870000  11.3350000   6.3810000  45.7710000  11.9490000   6.1150000
  44.8990000  11.5660000   7.2910000  39.3570000   9.1830000  15.5800000
  38.9660000  10.0300000  15.3650000  39.6410000   8.8290000  14.7370000
   2.2920000   9.3480000  14.9420000   1.8970000  10.1990000  14.7530000
   2.9100000   9.5230000  15.6510000  25.3080000  13.7670000  17.8780000
  26.0830000  14.0840000  18.3400000  24.6310000  13.7140000  18.5520000
  32.7580000  39.2800000   0.1390000  33.2400000  38.5830000   0.5840000
  33.0810000  40.0880000   0.5390000  26.4590000  33.1490000   0.9570000
  25.8790000  33.9020000   1.0740000  27.2480000  33.3760000   1.4480000
  19.3300000  39.2220000  28.0270000  19.4290000  38.4630000  27.4520000
  18.6040000  39.7170000  27.6480000  37.8210000  41.4360000   6.4360000
  37.9020000  40.9720000   7.2690000  38.5460000  41.1050000   5.9060000
  32.6680000  14.8190000  21.4990000  33.4940000  14.3600000  21.3440000
  32.5980000  15.4370000  20.7710000  26.0520000  15.5770000  29.3110000
  26.1620000  14.6510000  29.0920000  25.6950000  15.9700000  28.5150000
  26.3050000  25.5340000   5.3520000  26.4640000  26.0920000   6.1140000
  25.4880000  25.0780000   5.5550000   8.5170000  22.1880000  17.0420000
   7.9180000  22.0540000  17.7760000   8.9420000  23.0250000  17.2290000
  26.6720000  39.2440000  17.2230000  26.2770000  39.0230000  16.3800000
  26.6000000  40.1970000  17.2780000  22.1030000  13.4640000   1.6470000
  21.7280000  14.0730000   2.2830000  22.2090000  12.6460000   2.1330000
   1.4570000  20.2710000  10.1090000   1.0640000  20.3300000   9.2380000
   1.7320000  19.3580000  10.1860000  26.3100000   1.8710000  20.1050000
  27.0650000   1.2860000  20.0360000  26.6410000   2.7230000  19.8210000
  16.1390000   3.7560000  18.5850000  15.8300000   2.9430000  18.1860000
  16.0520000   4.4110000  17.8910000  21.0280000  11.4070000   3.5330000
  20.9040000  10.6370000   2.9790000  20.1820000  11.8550000   3.5130000
  20.2780000   4.0980000  40.2370000  20.7210000   4.2170000  41.0770000
  19.3610000   4.3050000  40.4170000  24.2200000  23.0670000   2.9170000
  23.5150000  23.1080000   3.5620000  24.5870000  22.1890000   3.0180000
  17.0670000  21.6870000  20.3630000  16.6130000  20.9200000  20.7140000
  16.4260000  22.3950000  20.4300000  43.8480000  20.2020000  13.3330000
  44.7160000  20.2920000  13.7260000  43.2830000  19.9350000  14.0580000
   5.4740000  19.4040000   2.8550000   5.0300000  19.3120000   2.0130000
   6.3810000  19.6080000   2.6260000   2.8520000  14.3950000  20.2650000
   2.8080000  15.2560000  19.8480000   3.5290000  13.9270000  19.7770000
   9.2910000  11.6910000  38.8520000   8.7080000  11.0410000  38.4610000
   9.4580000  11.3620000  39.7350000   9.8600000  10.9090000  33.0410000
   9.4950000  10.7080000  33.9030000   9.9840000  11.8580000  33.0490000
  20.5720000   1.1700000  16.9310000  20.6460000   2.0120000  17.3800000
  21.4580000   0.8080000  16.9540000   2.2750000   8.7160000  27.4100000
   1.8040000   9.3880000  26.9170000   2.7750000   8.2390000  26.7480000
  42.0800000   6.7520000  31.3310000  42.4750000   7.3120000  30.6630000
  42.7450000   6.6920000  32.0170000  32.1840000   5.1370000   6.6930000
  32.5180000   5.3620000   7.5610000  32.5740000   4.2850000   6.4990000
  20.0320000  29.2370000  19.5250000  19.3300000  28.5870000  19.5030000
  20.7720000  28.8050000  19.0980000  24.2240000  18.0200000  15.0700000
  24.3930000  17.6130000  15.9190000  25.0760000  18.3560000  14.7910000
  18.2140000  25.7870000  31.0450000  17.3820000  25.7070000  30.5790000
  18.8710000  25.8500000  30.3510000   7.2330000  28.9360000  34.0700000
   6.5450000  28.2940000  34.2490000   8.0180000  28.5640000  34.4730000
  30.9190000  37.6560000  33.8570000  30.5250000  37.0030000  34.4360000
  31.8100000  37.3390000  33.7110000  26.9060000  25.6260000  23.5250000
  26.3420000  25.7050000  24.2950000  26.5410000  24.8890000  23.0350000
  34.5830000  18.5410000  10.5280000  33.6980000  18.5100000  10.1640000
  34.7000000  19.4520000  10.7970000   7.1100000  42.4390000   5.6850000
   6.4890000  42.4250000   6.4130000   6.5620000  42.4080000   4.9010000
  22.2470000  40.8970000  22.9770000  22.7390000  41.6940000  22.7810000
  21.4440000  40.9780000  22.4620000  33.3670000  36.8790000  32.9160000
  34.2520000  36.6420000  33.1930000  33.4340000  36.9850000  31.9670000
  31.2400000  36.8620000   2.4750000  30.9550000  36.3820000   3.2530000
  31.3230000  36.1910000   1.7970000   5.8200000  33.3860000  26.9680000
   5.0600000  32.9290000  27.3280000   6.3780000  33.5570000  27.7270000
  39.2110000  29.8710000  24.5210000  39.2470000  30.8220000  24.6260000
  39.2300000  29.5310000  25.4160000   3.4850000  16.6330000   6.8870000
   3.9300000  17.2740000   6.3330000   3.0420000  16.0500000   6.2710000
  30.9170000  30.4020000  22.0650000  30.9080000  31.2160000  21.5610000
  30.4220000  30.6060000  22.8590000   3.6800000  36.2790000  27.7930000
   3.1900000  36.6770000  27.0740000   4.5990000  36.4100000  27.5590000
  25.9140000  27.7910000  16.7900000  25.8770000  28.7190000  16.5570000
  26.8490000  27.5860000  16.8060000  29.8490000   3.2760000  20.4310000
  29.9530000   3.3100000  19.4800000  30.1960000   2.4190000  20.6790000
   1.4990000  25.5250000  22.6140000   1.6770000  26.4430000  22.4080000
   0.7400000  25.5540000  23.1970000  31.3080000   7.4110000  33.9600000
  30.6940000   8.0710000  33.6380000  32.1710000   7.7530000  33.7270000
   4.4470000  36.3020000  10.2880000   5.1900000  36.2540000   9.6850000
   3.7740000  35.7560000   9.8830000   2.1100000  37.7180000   7.9910000
   1.9390000  38.5290000   7.5120000   2.8590000  37.9230000   8.5500000
   3.1200000   9.1490000   4.0560000   2.5210000   8.9840000   4.7830000
   3.8940000   9.5350000   4.4660000   3.7110000   3.1780000  34.1330000
   3.3560000   3.9380000  33.6720000   3.1670000   2.4460000  33.8410000
  44.5810000  21.9330000  11.0850000  44.3010000  21.9210000  12.0000000
  45.0330000  21.0980000  10.9620000   1.2730000  14.0410000  11.2130000
   0.7460000  14.7590000  10.8610000   1.0740000  14.0340000  12.1490000
  41.8870000  32.6130000  25.4100000  41.1470000  32.3210000  25.9430000
  42.2180000  33.3880000  25.8650000  39.9770000  42.8680000  25.2150000
  40.1540000  43.6160000  25.7860000  39.2720000  43.1670000  24.6420000
  16.3780000  19.7710000  11.0220000  15.5930000  19.9040000  11.5540000
  16.3240000  20.4430000  10.3430000  17.1370000  35.8840000   2.4050000
  16.8770000  34.9650000   2.4720000  17.7630000  35.9040000   1.6820000
  19.0260000  35.8090000  31.9430000  19.5220000  35.6480000  32.7460000
  19.6220000  35.5550000  31.2390000   4.6180000  32.2270000  23.0440000
   3.7640000  32.2370000  23.4750000   4.5020000  31.6400000  22.2970000
   0.8690000   4.1560000   9.4770000   1.7830000   3.8960000   9.3650000
   0.5920000   3.7170000  10.2810000  37.3680000  41.4200000  41.4430000
  38.2380000  41.4050000  41.0450000  37.2840000  40.5660000  41.8680000
  12.2640000  28.4610000  27.8630000  12.0950000  29.0940000  27.1640000
  12.0660000  27.6120000  27.4690000   2.9030000  15.6400000  32.9370000
   2.8120000  15.3610000  32.0260000   2.0050000  15.6840000  33.2640000
  36.4770000  20.3090000  17.1930000  35.8700000  20.9890000  16.9000000
  36.0430000  19.4870000  16.9640000  20.5570000  15.8370000  34.4510000
  21.0370000  16.5650000  34.0540000  20.1870000  15.3610000  33.7070000
   7.3530000  25.9740000  18.7470000   8.2370000  26.0950000  19.0940000
   7.1480000  26.8040000  18.3180000  29.6070000  16.0740000  36.5210000
  29.0880000  16.5730000  35.8900000  29.8710000  15.2870000  36.0450000
  19.3590000   6.1680000  26.7050000  18.6160000   6.0580000  27.2970000
  19.3580000   7.1000000  26.4890000   6.2080000  18.9310000  38.6390000
   6.4580000  19.7760000  38.2650000   6.5690000  18.9460000  39.5260000
  -0.1040000  17.4130000  30.1740000   0.5920000  17.8500000  30.6650000
  -0.3370000  16.6550000  30.7100000  30.5780000   6.2380000  37.9780000
  31.2820000   6.4590000  37.3690000  30.7970000   5.3590000  38.2890000
   8.6300000  34.8340000   9.5220000   8.1880000  34.3470000  10.2180000
   7.9340000  35.0450000   8.8990000  25.0500000   5.0000000  19.5960000
  24.2190000   5.1960000  20.0290000  25.6220000   4.6970000  20.3020000
  41.4640000  15.0830000  23.2250000  41.1190000  15.9650000  23.0840000
  42.3220000  15.2220000  23.6250000  43.0440000  31.0630000  37.4150000
  42.3790000  30.4970000  37.8070000  43.6270000  31.2860000  38.1410000
  30.8450000  10.4960000  25.6100000  30.8250000   9.5910000  25.9200000
  30.4910000  10.4540000  24.7220000  20.5290000  39.5750000   0.1870000
  21.1630000  39.9160000   0.8170000  19.8960000  40.2850000   0.0760000
  13.9720000  18.9430000   6.1560000  13.3380000  18.3570000   5.7440000
  14.1540000  19.6060000   5.4900000   5.3130000  30.8550000  26.0560000
   5.8570000  31.6320000  26.1810000   5.6590000  30.2180000  26.6810000
  40.9610000  33.2120000  35.2790000  41.4350000  32.4410000  35.5910000
  41.3850000  33.9480000  35.7190000  30.3940000  14.2790000  16.8100000
  31.1450000  14.6910000  16.3840000  29.8790000  13.9160000  16.0900000
  33.6220000   8.8360000   8.5590000  32.6730000   8.9130000   8.6520000
  33.9260000   9.7370000   8.4480000  15.7620000   1.4400000  32.5660000
  15.2830000   2.2640000  32.6510000  16.5320000   1.6640000  32.0420000
  27.9100000   1.9990000  12.4770000  27.8880000   1.4020000  11.7300000
  28.8390000   2.0830000  12.6900000   9.0180000   6.0820000  18.9740000
   8.6880000   5.3140000  19.4400000   8.2870000   6.3610000  18.4230000
  13.3800000  38.4090000  27.9030000  13.0710000  38.6050000  28.7880000
  13.8220000  37.5640000  27.9850000  24.5640000  23.5250000   6.3300000
  25.3200000  22.9490000   6.4410000  23.8410000  22.9340000   6.1190000
   2.4420000  23.3140000  31.5870000   2.1680000  23.1480000  32.4890000
   1.6230000  23.4220000  31.1030000  34.2690000  40.6570000  14.0380000
  34.8910000  40.0180000  13.6890000  33.7320000  40.1570000  14.6520000
   1.7180000  30.0660000   1.7050000   2.1300000  29.2600000   2.0170000
   2.3840000  30.7410000   1.8360000  33.4810000  28.7140000   9.8810000
  32.9510000  29.2640000   9.3040000  34.0720000  28.2470000   9.2890000
  19.0070000  13.6240000  40.3150000  19.3770000  13.3890000  41.1660000
  19.6420000  14.2330000  39.9370000  19.4480000   3.2990000  25.0450000
  18.5570000   3.0340000  24.8120000  19.3390000   4.1380000  25.4930000
  29.4220000  38.0640000   9.0950000  28.6900000  38.0290000   8.4790000
  30.1000000  38.5580000   8.6330000  15.6430000  26.2660000  30.1510000
  14.7340000  25.9680000  30.1750000  15.5930000  27.2050000  30.3260000
  31.6110000   5.5240000  41.6340000  30.6900000   5.7840000  41.6490000
  31.8580000   5.4630000  42.5570000  28.3760000  27.8940000   8.8880000
  27.5040000  27.5530000   8.6900000  28.3080000  28.8340000   8.7220000
  33.7460000   3.3510000   1.5930000  34.2930000   3.6340000   0.8610000
  34.1950000   2.5820000   1.9450000  12.9440000  18.6090000  20.1150000
  13.2130000  18.3800000  21.0050000  13.5700000  18.1550000  19.5510000
  42.0450000  16.4570000   9.4140000  42.4440000  17.1260000   9.9690000
  41.1330000  16.4200000   9.7030000  22.3450000   5.5790000  33.3810000
  22.1680000   4.8070000  33.9170000  22.9610000   6.0950000  33.9010000
  15.0560000  25.1210000   7.6420000  14.8040000  24.3910000   7.0760000
  14.2270000  25.5330000   7.8840000  23.8620000   3.2350000  21.8770000
  23.7600000   2.5650000  22.5530000  24.5240000   2.8790000  21.2840000
  29.2400000  41.4570000  41.5150000  29.4280000  40.5300000  41.3710000
  28.3880000  41.4640000  41.9500000  27.5640000   0.0850000  10.3530000
  28.3240000   0.1630000   9.7770000  26.8110000   0.2060000   9.7750000
  15.4020000   2.6140000  29.6820000  14.4960000   2.7890000  29.9370000
  15.9230000   2.9120000  30.4270000  22.0430000  29.4990000  25.4760000
  21.1850000  29.8970000  25.6250000  21.8910000  28.8560000  24.7830000
  27.7910000  27.6610000  28.4860000  28.6930000  27.8550000  28.7400000
  27.3080000  28.4630000  28.6840000  25.9580000  34.9300000  15.3160000
  26.1780000  35.5120000  14.5890000  25.8730000  34.0660000  14.9130000
  13.1800000  15.0760000   5.6910000  12.3900000  15.5740000   5.4830000
  12.9080000  14.4740000   6.3840000  10.0240000  24.9440000  22.0800000
   9.3920000  25.6430000  22.2480000  10.7590000  25.3840000  21.6520000
   7.7240000  38.2680000   3.2880000   8.0920000  38.2980000   2.4050000
   7.8100000  39.1640000   3.6140000  29.1550000   4.3400000  29.5720000
  29.2020000   3.3840000  29.5880000  30.0040000   4.6150000  29.2280000
  24.4510000  38.5610000  23.5650000  24.3490000  38.1510000  22.7060000
  25.2030000  39.1440000  23.4650000  13.6140000  37.5670000  14.3870000
  14.2290000  37.3840000  13.6770000  13.5690000  36.7480000  14.8810000
  19.5130000  17.7860000  31.4160000  20.0930000  17.5870000  30.6810000
  19.4410000  16.9610000  31.8960000  17.5890000   0.5370000  41.8410000
  16.8390000   0.0880000  42.2330000  17.3610000   1.4660000  41.8850000
  19.6870000  22.3640000  19.7930000  18.8680000  22.0770000  20.1970000
  19.7620000  21.8310000  19.0010000  19.2390000  10.3360000  21.6930000
  19.9320000   9.7580000  22.0110000  19.0690000  10.9310000  22.4230000
  45.0470000  34.1330000  28.3200000  44.8230000  34.9740000  27.9220000
  45.2740000  33.5710000  27.5800000  30.5380000  34.8490000  14.9250000
  30.6460000  33.8980000  14.9310000  29.8060000  35.0030000  14.3280000
  18.6130000  24.5610000  28.4970000  18.2900000  23.8780000  29.0850000
  19.4710000  24.2470000  28.2130000   6.3380000  21.1030000  29.6910000
   7.1410000  21.3410000  30.1530000   5.6520000  21.1670000  30.3560000
  44.8410000  17.0190000  15.0930000  43.8860000  17.0090000  15.1530000
  45.0910000  17.8940000  15.3880000   3.5350000  38.7630000  29.7280000
   3.2290000  37.9200000  29.3920000   2.9080000  39.3990000  29.3830000
  34.2870000  18.6300000  14.6140000  34.6080000  18.2810000  15.4450000
  33.3860000  18.8960000  14.7980000  40.6020000  32.2500000  14.2210000
  40.8610000  32.3680000  15.1350000  40.1950000  31.3840000  14.1960000
   9.4320000  28.8970000  25.4240000   8.6980000  28.3340000  25.6690000
   9.4760000  29.5500000  26.1220000  31.9730000  33.9830000  10.4530000
  32.3530000  33.5440000   9.6910000  32.2560000  34.8930000  10.3710000
   2.7450000  22.3990000  16.3730000   3.0640000  22.1650000  17.2450000
   2.6560000  23.3520000  16.3990000   8.8070000   3.5080000  20.2930000
   8.7270000   3.4120000  21.2420000   9.7080000   3.2500000  20.1010000
  42.0340000  18.4290000  36.1240000  41.6030000  18.3080000  36.9700000
  41.3780000  18.1630000  35.4800000  13.1220000  34.7040000  37.9610000
  12.5030000  35.4170000  37.8070000  13.5490000  34.5700000  37.1150000
   5.1820000   0.1410000  20.4820000   5.5290000   0.6180000  21.2350000
   5.8490000   0.2460000  19.8040000  21.4420000  41.7080000  33.8190000
  21.3260000  41.3610000  34.7030000  20.5530000  41.8980000  33.5180000
  28.0690000  16.8870000  25.6980000  27.5410000  16.3640000  25.0940000
  28.1070000  17.7530000  25.2930000  21.2440000   7.6470000  28.2940000
  21.0940000   6.8480000  27.7880000  21.1590000   7.3710000  29.2060000
   5.6480000  37.1430000   2.1030000   6.3650000  37.6590000   2.4710000
   4.8760000  37.4160000   2.5990000  23.8100000  16.3370000  37.1010000
  24.5510000  15.8230000  37.4240000  23.4420000  15.8080000  36.3940000
  30.1290000  39.7740000  15.9820000  29.7260000  39.0540000  15.4970000
  29.4660000  40.4650000  15.9790000   3.1420000  26.8620000  10.4070000
   3.5780000  26.0620000  10.7020000   3.8580000  27.4590000  10.1900000
   6.6860000  24.5170000  27.2090000   5.9610000  23.9000000  27.3060000
   7.4480000  23.9650000  27.0320000  34.4050000   1.0760000  37.4340000
  35.1630000   0.4980000  37.3500000  33.7760000   0.5740000  37.9520000
  33.4020000   8.7380000  32.8620000  33.9880000   9.3110000  33.3560000
  33.9830000   8.2420000  32.2840000  29.5450000  27.4050000   6.0550000
  29.0020000  27.5570000   6.8290000  29.8160000  26.4900000   6.1290000
  20.1800000  42.9260000  10.7090000  20.5290000  43.2100000   9.8640000
  19.2610000  43.1900000  10.6900000  29.6440000   6.3420000   7.2370000
  29.3580000   5.6380000   7.8200000  30.4490000   6.0110000   6.8400000
   8.6600000  37.7290000  26.4830000   8.0400000  38.3210000  26.0570000
   9.3470000  37.5940000  25.8310000   4.6420000  24.4700000  10.7470000
   3.8730000  23.9110000  10.8550000   5.0970000  24.4170000  11.5880000
  21.1780000  15.6120000  26.7730000  20.3430000  15.1970000  26.5550000
  21.2350000  16.3610000  26.1810000   8.1010000   1.3620000  11.3990000
   8.6380000   2.1070000  11.6690000   8.1400000   1.3730000  10.4430000
  15.4500000   9.2620000  18.6630000  15.4310000   8.5820000  19.3370000
  15.6750000  10.0630000  19.1360000  21.7610000  12.6970000  35.7960000
  21.4450000  13.3840000  36.3830000  22.7030000  12.8530000  35.7300000
  39.6980000  24.2470000   8.5280000  40.4090000  24.5120000   9.1110000
  39.0320000  24.9250000   8.6400000  21.1900000  41.2990000  28.1110000
  21.6150000  41.3860000  27.2580000  20.6490000  40.5140000  28.0310000
   1.8630000  12.4430000   9.1180000   1.3810000  11.6630000   9.3910000
   1.8200000  13.0280000   9.8740000  35.0270000  40.5750000  18.1760000
  35.3980000  41.0450000  18.9220000  34.1360000  40.9170000  18.0970000
  21.2040000  11.3510000  25.6320000  21.7320000  11.9710000  25.1280000
  21.8430000  10.7660000  26.0370000  19.3950000  27.6300000   5.9920000
  19.9740000  27.8890000   5.2750000  18.5750000  27.3860000   5.5610000
  39.7010000   2.6590000   2.8490000  39.6880000   2.7010000   1.8930000
  38.8160000   2.3820000   3.0890000  41.3440000  32.8680000  11.7010000
  41.0990000  32.6820000  12.6070000  42.2610000  33.1390000  11.7520000
  24.0570000   0.2690000  19.6660000  23.8460000   0.4910000  18.7590000
  24.8920000   0.7060000  19.8310000  28.1320000  18.2550000   8.1970000
  28.6650000  17.5300000   7.8690000  27.9810000  18.8070000   7.4300000
  14.4480000  22.1420000  21.3620000  13.7350000  22.0190000  21.9880000
  15.0540000  21.4240000  21.5460000   3.9370000   1.9910000   3.7090000
   3.9300000   1.7010000   4.6220000   3.3010000   2.7060000   3.6800000
  23.4380000  24.0710000  35.1120000  24.0000000  24.8440000  35.0660000
  22.5590000  24.4230000  35.2510000   1.9180000  30.4900000  28.3280000
   1.8180000  29.9390000  29.1040000   2.1670000  31.3480000  28.6730000
  15.0050000  33.0010000  12.1900000  14.2810000  32.7320000  12.7550000
  15.7860000  32.8870000  12.7300000  33.5890000   2.2730000  12.8990000
  34.0750000   1.7260000  12.2830000  33.8680000   3.1660000  12.6990000
  22.8440000  16.4950000  13.3560000  22.2940000  17.0230000  12.7770000
  23.3570000  17.1360000  13.8480000  12.1430000  17.7690000  40.2830000
  12.3110000  18.7070000  40.1920000  11.2070000  17.6750000  40.1050000
   1.3210000  -0.0400000   3.8210000   2.2120000  -0.3690000   3.6960000
   1.4320000   0.8980000   3.9740000  20.3860000  33.7140000   8.6230000
  21.2950000  33.9870000   8.7490000  19.8680000  34.4400000   8.9690000
  41.4720000  21.6190000   5.0550000  41.0630000  22.3160000   5.5680000
  42.1440000  21.2590000   5.6330000  30.3810000  32.9070000  30.7640000
  29.4680000  33.1010000  30.9750000  30.3350000  32.1660000  30.1600000
  29.8580000  12.9500000   7.4730000  30.7600000  13.0800000   7.7630000
  29.4210000  12.5460000   8.2220000  10.8540000   4.1380000   4.1220000
  11.4670000   3.5970000   4.6210000  11.1470000   4.0550000   3.2140000
  10.8190000  27.4620000  38.6120000  10.5510000  28.2250000  38.1000000
  11.3200000  27.8280000  39.3410000   7.0510000  43.9340000  18.6580000
   6.8110000  43.6870000  17.7650000   7.7580000  43.3330000  18.8910000
  40.4870000  13.3650000  40.0310000  40.7210000  13.6300000  39.1410000
  41.3190000  13.1220000  40.4360000   8.4210000  34.0580000   3.4470000
   8.4530000  33.3540000   2.8000000   9.2930000  34.4520000   3.4150000
  17.7420000  28.7650000  36.0400000  17.8370000  28.4070000  36.9230000
  17.6570000  29.7090000  36.1720000  24.1930000  15.4450000  22.1370000
  23.8840000  16.3020000  22.4280000  24.9640000  15.2710000  22.6780000
   8.4420000  31.4410000   2.2820000   7.6890000  30.9960000   2.6700000
   8.4710000  31.1210000   1.3800000  12.6680000  42.6250000  34.3770000
  13.1950000  42.0750000  34.9570000  12.0680000  42.0150000  33.9480000
  36.6560000  21.3880000  27.9230000  36.2030000  21.8660000  28.6170000
  36.1400000  20.5890000  27.8060000  16.1850000  24.5060000  20.6940000
  16.3490000  24.7130000  21.6140000  15.2320000  24.5420000  20.6070000
  17.7220000  11.3690000  16.1530000  18.1540000  11.0240000  16.9340000
  16.9830000  10.7790000  16.0070000  28.2340000  29.1870000  39.1130000
  27.4770000  29.0760000  39.6880000  27.8830000  29.6240000  38.3370000
  23.5960000  38.7580000  34.0700000  24.0260000  39.5870000  34.2790000
  24.2200000  38.0880000  34.3500000   5.2500000  35.3560000  21.9800000
   5.0150000  34.5600000  22.4560000   5.0040000  35.1750000  21.0730000
  14.3850000  32.1670000  15.1220000  14.5010000  31.3080000  15.5300000
  15.2750000  32.4660000  14.9370000  19.7490000  13.1140000   0.3640000
  19.3450000  12.8360000   1.1860000  20.6880000  13.1170000   0.5470000
  28.8770000   6.0910000  18.5810000  29.8170000   6.1710000  18.7420000
  28.6920000   5.1590000  18.6970000  10.3620000  39.9830000  12.3870000
  10.3490000  39.7690000  13.3200000  10.7980000  39.2370000  11.9760000
  38.3570000  32.2610000  37.9000000  38.9940000  32.8830000  38.2500000
  38.7420000  31.9610000  37.0770000   5.2450000  25.4890000   1.3410000
   5.4180000  24.9930000   2.1410000   6.0420000  26.0010000   1.2010000
   4.0900000  16.1140000  35.4310000   3.4520000  16.0840000  36.1440000
   3.6160000  15.7760000  34.6710000  20.8050000  31.1830000   5.2210000
  21.2730000  31.2460000   4.3880000  21.3890000  30.6790000   5.7870000
  34.2610000  20.5390000   7.8030000  35.1600000  20.2120000   7.8270000
  33.7710000  19.9350000   8.3600000   4.3000000  21.2310000  24.5560000
   3.8270000  20.6020000  25.1000000   4.6450000  21.8730000  25.1760000
  19.2670000  29.6470000  13.2980000  19.1550000  30.0030000  12.4160000
  19.7810000  28.8490000  13.1700000  11.2360000  33.0570000  30.1520000
  11.9210000  33.6160000  30.5200000  11.5850000  32.7760000  29.3060000
  39.3820000  10.2430000  21.9470000  39.6870000   9.3900000  21.6380000
  38.9010000  10.6090000  21.2050000  21.3070000  43.6150000   8.3870000
  21.0230000  43.8090000   7.4940000  22.2560000  43.5150000   8.3190000
  19.4000000  22.0820000  25.6150000  19.3340000  22.7160000  24.9010000
  18.4950000  21.9310000  25.8860000  44.3190000  24.8650000   0.7330000
  43.8550000  24.3190000   1.3690000  44.8160000  24.2430000   0.2020000
  22.6820000  40.7110000  17.1150000  23.1370000  40.1780000  17.7670000
  22.4860000  40.1040000  16.4020000  27.4940000   1.0230000  33.6310000
  26.8400000   0.3460000  33.4580000  27.4470000   1.1650000  34.5770000
  31.4320000   3.4790000  10.1980000  31.6780000   3.3110000  11.1070000
  32.0160000   4.1850000   9.9180000  42.5450000   1.0370000   4.8410000
  43.3170000   0.4760000   4.7640000  42.8190000   1.7420000   5.4270000
  20.8740000   4.0990000  37.5740000  20.6260000   4.2420000  38.4870000
  20.1920000   3.5240000  37.2270000  12.9530000   1.5430000   8.0610000
  13.7970000   1.7120000   7.6440000  12.8930000   2.2010000   8.7540000
   6.4900000  41.2280000  19.8870000   6.1110000  42.1000000  19.7740000
   7.3390000  41.2780000  19.4480000  13.5790000  26.5680000  35.8000000
  14.3380000  26.4560000  36.3720000  13.4910000  27.5160000  35.7010000
  39.0350000  17.4410000  30.0570000  38.1170000  17.1730000  30.1100000
  39.0040000  18.3360000  29.7200000  29.2470000  43.4020000   4.1260000
  28.5530000  44.0600000   4.1790000  29.3290000  43.2160000   3.1910000
  10.6600000  14.9490000  40.0840000  11.4080000  15.5410000  40.0040000
  10.7000000  14.4040000  39.2980000  10.2200000  31.6040000  16.5020000
   9.5420000  31.5190000  17.1720000   9.9080000  32.3070000  15.9330000
   9.2060000  28.6930000  30.7770000   8.5980000  27.9600000  30.8770000
   8.8320000  29.3900000  31.3150000  33.2610000  22.0910000  12.3620000
  33.4660000  22.7050000  13.0670000  32.4190000  21.7100000  12.6130000
  35.5050000  16.7470000  41.9700000  34.5570000  16.8540000  41.8890000
  35.8670000  17.5680000  41.6370000  39.7670000   9.0840000   7.9800000
  40.5250000   8.6680000   8.3900000  40.1410000   9.7640000   7.4200000
  39.7770000  19.4250000   4.3630000  40.2700000  20.0860000   4.8480000
  39.5880000  18.7450000   5.0090000  12.5210000   3.8940000  24.3960000
  12.7220000   4.1790000  23.5040000  11.9640000   4.5880000  24.7490000
  30.5640000  41.7510000  34.4810000  31.4450000  41.5010000  34.7620000
  30.7070000  42.4210000  33.8120000  22.0620000  35.9180000  21.4010000
  22.8250000  36.4680000  21.2250000  21.5590000  36.4060000  22.0530000
  31.6200000   1.3190000  28.1670000  31.1080000   0.5200000  28.0420000
  31.2150000   1.7470000  28.9210000   5.6200000  26.1520000   4.8410000
   5.5980000  25.7840000   5.7240000   5.7840000  25.4000000   4.2720000
   8.4530000  10.0400000  35.3490000   7.9920000   9.3190000  34.9210000
   9.3050000   9.6740000  35.5840000  21.2190000   5.1290000  23.3330000
  21.2100000   4.4130000  22.6970000  20.8650000   4.7420000  24.1340000
  28.5550000   2.4280000  39.3130000  29.4580000   2.1110000  39.3250000
  28.4900000   2.9390000  38.5060000  14.7840000  41.8350000   5.8170000
  14.0300000  42.2330000   6.2520000  14.4090000  41.1480000   5.2670000
  21.2800000  18.7520000   6.7590000  21.8560000  18.0710000   7.1060000
  20.4050000  18.4990000   7.0540000  18.6000000  18.9200000   7.7930000
  18.5290000  18.7010000   8.7230000  17.6940000  19.0140000   7.5000000
  25.9230000  41.6060000  19.3480000  25.1010000  42.0140000  19.0740000
  25.9780000  40.8050000  18.8280000  14.7210000  38.9530000  38.7590000
  14.6150000  38.0370000  39.0130000  14.9810000  38.9180000  37.8380000
  -0.0510000  19.8420000  24.0890000   0.6460000  19.9710000  23.4460000
  -0.1200000  20.6840000  24.5390000  19.1790000  31.6730000  41.9200000
  19.4510000  31.0260000  42.5710000  19.2780000  32.5160000  42.3630000
  20.0770000  35.5300000  16.2760000  19.8330000  34.6750000  16.6310000
  20.1900000  36.0850000  17.0470000  21.7870000   3.6300000  35.0590000
  21.8410000   3.8560000  35.9880000  21.0170000   3.0660000  34.9940000
  11.0860000  29.2680000  14.9440000  10.9080000  29.6830000  14.1000000
  10.7960000  29.9100000  15.5920000  12.0490000   4.1320000  36.1640000
  12.4960000   3.7620000  36.9260000  12.0660000   3.4310000  35.5130000
  29.4630000  30.0810000  29.1050000  30.4000000  30.1780000  29.2770000
  29.1170000  29.6590000  29.8910000  28.2540000  12.3080000  27.1420000
  27.4930000  12.0180000  26.6390000  28.8820000  11.5900000  27.0610000
  12.4480000  10.3630000  40.8070000  12.8530000  10.8920000  40.1190000
  13.0390000  10.4510000  41.5550000  40.3350000  38.0150000  34.3930000
  41.2730000  38.0030000  34.2060000  39.9710000  37.3250000  33.8380000
  27.4960000  25.1380000  38.5640000  27.1670000  25.4630000  39.4010000
  27.0000000  24.3350000  38.4070000  27.7900000  32.2140000   5.4840000
  27.8620000  33.0240000   5.9880000  28.6630000  32.0830000   5.1150000
  16.4330000   5.3310000  23.8590000  16.4890000   4.5290000  24.3790000
  16.3650000   5.0260000  22.9550000  12.3920000   2.3240000  33.6810000
  12.1930000   1.4850000  34.0970000  11.7440000   2.4050000  32.9810000
  29.2710000  10.5110000  36.7300000  29.8460000  10.4960000  35.9650000
  28.9830000   9.6040000  36.8310000  42.9180000  36.4840000  30.0950000
  42.4210000  36.0190000  29.4220000  42.3470000  37.2060000  30.3570000
  35.6440000  39.5160000  38.9370000  36.1710000  39.8440000  38.2080000
  36.2860000  39.2400000  39.5910000  23.7780000  43.1440000   1.2460000
  24.2110000  43.7640000   1.8330000  24.1750000  42.2980000   1.4570000
  44.1460000   4.6950000  14.4570000  44.3370000   4.0390000  15.1280000
  44.2430000   5.5340000  14.9070000   6.7130000  38.9750000  25.0130000
   6.1590000  38.3390000  24.5610000   7.2560000  39.3540000  24.3220000
  22.4360000  19.5150000  39.5910000  22.1570000  18.8280000  38.9860000
  23.2050000  19.9030000  39.1730000  14.9190000  29.1130000  29.0390000
  15.1960000  29.8440000  29.5910000  13.9940000  29.2840000  28.8610000
  30.4900000   0.4880000  20.9190000  29.9100000   0.4560000  20.1580000
  31.2780000   0.0220000  20.6400000  23.0190000  30.0790000  15.6780000
  22.6580000  29.6480000  16.4530000  22.7410000  29.5280000  14.9460000
  38.0420000  13.9270000  25.6460000  38.2910000  14.3200000  24.8100000
  38.6590000  13.2050000  25.7650000  15.5720000  16.9930000  24.5610000
  16.1110000  16.5920000  25.2420000  15.9640000  16.6970000  23.7400000
  20.9940000  26.9190000  29.8170000  21.0720000  26.8640000  28.8650000
  20.5720000  27.7640000  29.9740000  15.7980000  31.7670000  20.9960000
  16.1000000  30.9930000  21.4710000  15.1360000  32.1560000  21.5680000
  44.8600000   0.3830000  33.2560000  45.5990000   0.7250000  33.7580000
  44.4990000   1.1490000  32.8090000   5.3380000   2.3920000  27.4200000
   4.8920000   2.2990000  28.2620000   4.7310000   2.8990000  26.8820000
  29.9420000  31.4530000  24.8810000  30.4170000  32.1840000  25.2760000
  29.3030000  31.1960000  25.5460000  15.7390000  35.7510000  31.1000000
  16.3850000  35.4020000  31.7150000  16.1080000  36.5860000  30.8130000
   4.3910000  11.8470000   5.1720000   5.1090000  12.4770000   5.1180000
   4.0420000  11.8030000   4.2820000  29.8400000  20.9610000  41.2960000
  29.3190000  20.5930000  42.0100000  30.6870000  20.5210000  41.3650000
   5.3910000  11.9460000  28.1950000   4.8290000  11.4730000  28.8090000
   5.3430000  11.4380000  27.3860000  31.1610000  16.1340000  32.3380000
  30.4480000  16.4040000  31.7610000  31.3350000  15.2250000  32.0950000
  22.5410000  39.7350000  39.5890000  23.3230000  39.5290000  40.1010000
  22.3000000  40.6190000  39.8650000  28.5490000  12.5220000   4.0320000
  28.8480000  11.6200000   3.9210000  28.1970000  12.5500000   4.9220000
  35.7270000  35.4550000  10.2560000  36.1180000  36.1380000   9.7110000
  34.7830000  35.5770000  10.1550000  11.3700000  34.3650000   4.5560000
  11.4560000  34.2500000   5.5020000  11.0430000  33.5220000   4.2410000
  37.9280000  12.8680000  38.7590000  38.7340000  12.8570000  39.2750000
  37.3260000  13.4120000  39.2670000  17.0510000  12.7890000  38.7280000
  17.3780000  12.0570000  38.2040000  17.7930000  13.0410000  39.2770000
  33.0220000  10.7680000   6.5070000  33.4200000  10.6240000   5.6480000
  32.2530000  10.1980000   6.5130000  33.3680000  24.1640000   5.1830000
  34.0580000  24.2700000   4.5280000  32.9280000  23.3500000   4.9370000
  14.4940000  23.3860000  41.2910000  14.9800000  22.6510000  41.6630000
  14.1490000  23.8550000  42.0510000  24.0420000  11.0680000  22.2980000
  24.2320000  10.2940000  22.8290000  23.3230000  10.7970000  21.7280000
  20.7070000  33.9850000   3.8900000  21.4920000  33.7740000   4.3970000
  20.0130000  34.0620000   4.5450000  15.3050000  25.8020000  11.2310000
  15.9650000  26.0050000  11.8930000  15.8100000  25.5340000  10.4630000
  25.9880000  28.7270000  25.7480000  25.3320000  29.3980000  25.5580000
  26.6810000  29.1950000  26.2130000  43.4900000  29.8120000  17.3550000
  42.6020000  29.5540000  17.6040000  43.4360000  29.9780000  16.4140000
   3.2890000  13.4500000   2.8200000   3.9100000  13.6480000   2.1190000
   2.4800000  13.2180000   2.3650000  22.0000000  27.5750000  23.4100000
  22.7410000  28.1080000  23.1210000  21.9910000  26.8310000  22.8080000
  29.3230000  15.4740000  27.4280000  29.1990000  14.5460000  27.2250000
  28.8600000  15.9360000  26.7300000   5.1100000  29.5420000  30.3390000
   5.1520000  28.6590000  30.7060000   4.1740000  29.7140000  30.2380000
  15.3290000  14.6750000  38.0410000  16.0280000  14.0330000  38.1640000
  15.7840000  15.4820000  37.7980000  22.6810000   3.8560000  26.1660000
  22.2840000   4.0920000  27.0050000  22.6630000   2.8990000  26.1540000
   9.8610000  39.0930000   1.6480000  10.0630000  39.7320000   0.9650000
   9.6770000  39.6230000   2.4240000  33.4550000   4.5030000  39.8200000
  32.9090000   4.8790000  40.5100000  32.8310000   4.1160000  39.2060000
  22.8790000   9.3340000   7.5770000  23.0620000   8.4760000   7.1940000
  22.0890000   9.1990000   8.1000000  36.5300000  19.4440000  36.9780000
  37.0170000  19.6260000  36.1750000  35.6260000  19.3250000  36.6880000
  43.2170000  42.3600000  21.3080000  43.4860000  43.2750000  21.3910000
  43.8940000  41.8680000  21.7730000   6.4320000  19.0360000   8.4880000
   6.8850000  18.7470000   7.6950000   5.8900000  18.2880000   8.7390000
  40.0530000  39.5480000   5.7750000  40.5950000  40.3370000   5.7970000
  40.5130000  38.9260000   6.3390000  33.4000000  32.7710000  15.4060000
  34.3310000  32.9430000  15.2690000  33.3490000  31.8250000  15.5480000
  29.1280000  23.7490000   2.4550000  28.2620000  24.1540000   2.4970000
  29.3420000  23.7380000   1.5220000   6.6080000  35.3970000  16.1570000
   7.2010000  35.2920000  16.9010000   7.1780000  35.3540000  15.3890000
  28.1430000  34.5310000  26.6840000  27.6980000  34.4140000  25.8450000
  28.5750000  35.3820000  26.6090000  13.7090000  20.7130000  11.2730000
  13.2880000  21.0080000  10.4650000  13.0220000  20.2400000  11.7420000
  43.9260000   4.9900000  28.1000000  44.0870000   4.0490000  28.0200000
  44.4950000   5.2700000  28.8170000  42.3100000  40.3490000  15.8600000
  41.9700000  39.4630000  15.7320000  41.8490000  40.6720000  16.6340000
   3.8120000  31.9890000  33.3240000   4.4450000  32.1930000  32.6350000
   3.5360000  31.0910000  33.1390000  23.2920000   9.1470000  30.8360000
  24.0100000   9.4140000  30.2620000  23.0630000   9.9410000  31.3180000
  38.1890000  15.5890000  12.8030000  38.5490000  16.0540000  13.5580000
  37.4100000  16.0910000  12.5620000  27.8480000   8.5950000  18.7760000
  28.2600000   7.7850000  18.4760000  26.9090000   8.4340000  18.6840000
  15.3050000  25.4930000  39.6340000  16.2580000  25.5180000  39.7150000
  15.0430000  24.7090000  40.1160000  13.2920000  13.5570000  24.1900000
  13.5270000  13.3490000  23.2860000  12.7030000  14.3080000  24.1180000
  10.3390000  41.7220000  24.6830000  10.4840000  41.0930000  25.3900000
  10.6610000  42.5530000  25.0320000  44.7560000  27.5920000  34.4040000
  45.6920000  27.5960000  34.6050000  44.3930000  28.2970000  34.9400000
  34.8040000  28.7680000  26.3620000  35.4290000  28.2250000  26.8420000
  35.3430000  29.2700000  25.7510000  16.2550000  22.0330000   9.2880000
  16.9640000  22.3570000   8.7330000  15.5170000  22.6120000   9.0960000
  15.6240000  33.1050000   5.2810000  15.9860000  32.9670000   4.4060000
  16.3850000  33.0860000   5.8620000  18.8660000   1.5620000  27.7110000
  18.0000000   1.4680000  27.3150000  19.1780000   2.4130000  27.4050000
  21.1260000  23.0980000  28.5210000  21.1710000  22.1890000  28.8160000
  21.6440000  23.5840000  29.1640000  30.8320000   2.0230000   5.3360000
  31.1600000   2.3490000   4.4980000  30.1090000   1.4410000   5.1000000
   2.1280000  40.4060000  18.2130000   2.5430000  41.2680000  18.1920000
   1.2470000  40.5560000  17.8720000  40.2210000  32.9260000   0.8760000
  40.8310000  33.5360000   0.4620000  40.7820000  32.2740000   1.2970000
   6.1780000  20.8500000  34.4770000   7.0560000  20.4700000  34.4430000
   5.5900000  20.1030000  34.3700000   4.4360000  39.1850000  21.0460000
   3.8890000  39.9700000  21.0300000   5.2510000  39.4530000  20.6210000
  11.8860000  39.3160000  17.7580000  12.5880000  38.6770000  17.6330000
  11.4540000  39.3660000  16.9060000  38.0900000   8.5280000  10.4950000
  38.4040000   8.3450000   9.6090000  38.6960000   9.1890000  10.8320000
  34.4830000  29.5400000  19.5100000  34.7210000  29.8450000  20.3850000
  33.7820000  30.1310000  19.2340000  23.9990000  29.9670000   9.8960000
  24.7130000  30.2750000  10.4550000  24.2210000  29.0560000   9.7050000
  10.5450000  40.1420000  26.6310000   9.8360000  39.9270000  27.2380000
  11.3290000  40.1700000  27.1780000   5.0340000  38.5000000  40.4600000
   5.8150000  37.9500000  40.5260000   4.3140000  37.8790000  40.3500000
  16.0720000  19.6690000   7.5350000  15.6510000  20.4640000   7.8620000
  15.3670000  19.1830000   7.1070000  32.3620000  29.7730000  26.1460000
  33.2900000  29.5830000  26.0080000  32.0390000  29.0310000  26.6570000
  25.4400000  16.7080000  27.1090000  26.1980000  17.1150000  26.6890000
  24.9810000  16.2640000  26.3960000  27.6640000   4.9310000  31.9320000
  26.7910000   5.2250000  31.6720000  28.2060000   5.0750000  31.1570000
  24.0150000   9.9670000  36.9920000  23.3380000   9.2920000  37.0380000
  24.6970000   9.6630000  37.5910000   9.0240000  10.7280000  29.1330000
   9.8510000  10.6130000  29.6010000   8.3600000  10.7550000  29.8220000
  14.1300000  18.4920000  36.9080000  14.3710000  17.5770000  37.0510000
  14.4350000  18.6850000  36.0210000  40.7600000   1.7160000  31.5440000
  39.9690000   2.0260000  31.1020000  40.4650000   0.9700000  32.0670000
  35.4430000  13.5560000   5.9510000  35.4240000  13.5370000   4.9940000
  36.0960000  14.2230000   6.1630000  26.8550000   1.2520000  36.2680000
  26.2660000   1.5000000  36.9810000  26.9000000   0.2970000  36.3160000
  31.3960000  20.9520000  26.9030000  31.0310000  21.7870000  26.6130000
  32.3320000  21.1240000  27.0100000  40.3960000   2.0320000   9.8600000
  40.4970000   2.9630000   9.6630000  40.7780000   1.9280000  10.7310000
  15.2550000  41.8630000   0.3100000  14.4610000  41.4210000   0.0100000
  14.9980000  42.7800000   0.4070000  32.1990000  33.7660000  37.9060000
  32.2640000  34.6840000  38.1710000  31.7440000  33.3390000  38.6320000
  42.5830000  37.7030000  26.6270000  42.5670000  38.5900000  26.2680000
  41.8450000  37.6780000  27.2370000  19.5880000  38.9720000  32.7500000
  19.1750000  39.4280000  32.0170000  20.2400000  38.4020000  32.3410000
  38.6950000  18.4530000   2.1960000  38.7450000  18.9040000   3.0390000
  38.0500000  18.9520000   1.6950000  24.8870000  24.2840000  32.4040000
  25.4370000  25.0190000  32.1360000  25.4560000  23.7470000  32.9560000
  11.6450000   8.4850000  15.8580000  10.7560000   8.6520000  15.5460000
  11.5360000   7.8530000  16.5680000  14.1340000  43.0650000  40.1050000
  14.2010000  43.5720000  40.9140000  13.4220000  42.4470000  40.2680000
  10.7870000  32.7410000  24.5340000   9.9610000  32.6160000  25.0000000
  11.1850000  33.5060000  24.9510000  29.7250000  40.9310000  10.2040000
  29.4770000  41.3910000  11.0060000  30.3510000  40.2660000  10.4930000
   4.7650000  41.5380000   1.5140000   4.3130000  42.0200000   0.8210000
   5.6920000  41.7290000   1.3710000   7.0170000   7.6050000   7.3620000
   7.5710000   8.2250000   7.8360000   6.1430000   7.9930000   7.3930000
  38.9540000  14.1440000   4.0540000  39.0380000  13.6230000   3.2550000
  39.6160000  14.8290000   3.9640000  18.7870000  32.7010000  11.9320000
  19.0810000  32.8290000  12.8340000  19.2770000  31.9370000  11.6270000
  17.2120000  10.8910000  41.2570000  17.2770000  11.4100000  40.4560000
  17.0690000  11.5360000  41.9500000  19.5810000  25.2920000  24.9450000
  19.3980000  25.8370000  24.1800000  18.8820000  25.5050000  25.5640000
  26.5870000  41.6190000  22.1230000  27.3810000  41.1170000  21.9350000
  26.2600000  41.8810000  21.2630000  13.4830000  13.9170000  39.8380000
  13.2050000  13.0600000  39.5150000  14.1010000  14.2320000  39.1780000
  30.6330000   0.3830000  16.9800000  31.2330000   0.5740000  17.7010000
  31.1880000  -0.0020000  16.3020000  12.4810000  41.7710000  22.6980000
  12.0560000  41.9580000  21.8610000  11.7660000  41.5050000  23.2760000
  16.3230000   8.9270000   6.7430000  16.1010000   8.7120000   7.6490000
  15.6300000   8.5200000   6.2240000  40.8590000  19.8060000  10.3010000
  40.2530000  20.2250000  10.9130000  40.6920000  20.2400000   9.4640000
  27.1920000  32.4930000  11.4550000  26.6410000  31.7100000  11.4810000
  28.0870000  32.1540000  11.4260000  13.3800000  28.0180000  11.6700000
  14.1230000  27.5520000  11.2870000  13.6270000  28.1510000  12.5850000
   1.2910000   4.0520000  30.4710000   1.7970000   3.2410000  30.4120000
   1.3500000   4.4350000  29.5950000  27.3950000  37.1300000   1.4290000
  26.7880000  36.4240000   1.2070000  27.4940000  37.6250000   0.6160000
   1.2040000  22.5790000   6.3790000   0.3640000  22.4550000   6.8200000
   1.8260000  22.7420000   7.0880000  10.6320000  18.5750000  24.1840000
  10.7300000  19.3750000  23.6670000   9.7090000  18.3410000  24.0880000
  29.6630000  26.8490000  38.1510000  29.0480000  26.1670000  38.4220000
  29.3110000  27.6540000  38.5310000  25.7470000   5.0250000  35.4970000
  25.0600000   4.3750000  35.3460000  25.2820000   5.7890000  35.8370000
  36.9410000  13.9430000  29.7000000  36.7440000  13.4980000  30.5240000
  36.1010000  13.9820000  29.2430000  42.2510000  33.7130000   7.7090000
  41.9560000  33.1150000   7.0210000  41.5610000  34.3740000   7.7630000
  37.8640000  21.3550000  19.2890000  38.6510000  20.8290000  19.1480000
  37.1870000  20.9150000  18.7750000  26.9060000  28.5230000  22.7880000
  27.0490000  27.5770000  22.7850000  26.0490000  28.6370000  22.3770000
  19.6580000  12.6710000  14.1680000  19.0880000  12.5560000  14.9290000
  20.1990000  11.8810000  14.1530000  42.6050000  16.7160000   6.8250000
  41.6900000  16.9080000   6.6200000  42.6290000  16.6530000   7.7800000
  42.9990000  25.6590000  34.1460000  43.6970000  26.2750000  34.3680000
  43.4150000  25.0250000  33.5620000  30.7790000  34.0620000  26.5550000
  29.8340000  34.1030000  26.7010000  31.0590000  33.2730000  27.0180000
  13.8700000  25.3390000  16.0690000  13.3670000  25.9660000  15.5500000
  13.5550000  24.4820000  15.7800000  16.3710000  39.9310000  36.1050000
  15.8020000  40.3850000  36.7270000  17.2200000  40.3620000  36.1970000
   2.1510000  28.4570000  20.1520000   1.5150000  29.1170000  19.8780000
   2.0730000  28.4290000  21.1060000  22.9260000  26.1160000   6.9900000
  23.4860000  26.6160000   6.3970000  23.3280000  25.2480000   7.0240000
  21.4200000  18.4930000  33.4170000  20.9830000  18.5600000  32.5680000
  22.3220000  18.2520000  33.2040000  41.0150000  18.0830000  16.7680000
  41.3950000  17.2410000  17.0190000  41.7680000  18.6270000  16.5360000
  41.3030000  22.2930000  37.1250000  41.2210000  22.9210000  37.8430000
  40.8190000  22.6910000  36.4010000  38.9030000  30.6620000   0.2450000
  39.1210000  31.5720000   0.4440000  38.5760000  30.6850000  -0.6540000
  39.9270000  11.1010000  11.1360000  39.9490000  11.8590000  11.7190000
  40.5060000  11.3390000  10.4110000  13.9320000  34.8480000   6.5260000
  13.1790000  34.3030000   6.7570000  14.4590000  34.2950000   5.9480000
   3.5570000  23.4210000   7.6880000   3.1690000  23.9320000   8.3980000
   3.8170000  22.5970000   8.1010000   9.8010000  20.2210000  38.2120000
  10.4680000  20.8300000  38.5290000   9.0990000  20.7830000  37.8850000
  18.2620000   8.2970000  20.0530000  18.0210000   8.9290000  19.3750000
  18.4060000   8.8290000  20.8350000  34.2140000  41.1910000   1.6020000
  34.2940000  42.1400000   1.5060000  35.1090000  40.8910000   1.7610000
  10.8300000  25.5470000  36.4180000  11.5930000  26.0000000  36.0600000
  10.6060000  26.0420000  37.2060000  33.9490000   0.3550000  -0.1430000
  34.3570000   0.4140000   0.7210000  33.3550000   1.1040000  -0.1790000
  39.0370000  25.9730000  34.8690000  38.1500000  25.8560000  35.2090000
  39.1480000  26.9220000  34.8110000   8.6930000  23.5620000  29.7600000
   9.3980000  23.8350000  29.1730000   9.1350000  23.0690000  30.4520000
  22.3100000  22.8090000   0.0810000  22.3980000  21.8630000   0.1990000
  21.3710000  22.9470000  -0.0450000  18.8050000   8.0010000  14.5540000
  18.5880000   8.2520000  13.6560000  18.0310000   8.2430000  15.0630000
   0.2150000   3.7770000   6.2980000   0.4940000   3.6270000   7.2020000
   0.0100000   4.7110000   6.2620000  12.1620000  12.5380000  16.5800000
  11.6920000  12.5620000  17.4140000  12.7140000  11.7580000  16.6390000
  30.0880000   5.9650000  23.0560000  30.0570000   5.1350000  22.5790000
  30.1340000   5.7100000  23.9770000   8.0450000  25.3060000  33.3050000
   7.2630000  24.8180000  33.0500000   8.3720000  25.6800000  32.4860000
  11.0930000  15.3810000  34.9410000  10.5210000  15.7300000  35.6240000
  11.8750000  15.0900000  35.4100000  23.9380000   5.3550000  13.5210000
  24.7540000   4.9120000  13.2870000  23.7880000   5.9730000  12.8050000
  24.8340000  31.5330000  31.6040000  23.9740000  31.7650000  31.9530000
  24.6800000  30.7380000  31.0940000  15.0460000  13.0290000   6.8680000
  14.4000000  12.8550000   6.1840000  14.5260000  13.1580000   7.6610000
   7.3670000  32.6370000  23.6580000   7.3600000  33.4580000  24.1500000
   6.4450000  32.4680000  23.4610000  21.2080000  17.5000000  28.6960000
  21.2380000  16.8240000  28.0180000  21.8110000  17.1890000  29.3710000
  34.4060000  37.1210000  14.5640000  33.9930000  37.7030000  15.2010000
  34.2820000  37.5600000  13.7230000  20.0130000  10.5770000  28.4780000
  19.8000000  10.2540000  29.3540000  20.2720000   9.7950000  27.9910000
  40.3610000  42.2970000  40.7250000  40.8430000  41.8990000  40.0010000
  40.5380000  43.2340000  40.6460000  15.9260000  13.6950000  31.0840000
  15.4320000  13.9390000  30.3010000  15.2620000  13.6060000  31.7680000
  13.8770000  30.9320000   5.3790000  14.5450000  31.6170000   5.3570000
  13.5760000  30.9200000   6.2880000  29.5480000  31.4300000  18.5840000
  29.5810000  32.1290000  19.2370000  29.0190000  30.7450000  18.9930000
  17.3910000   0.1580000  10.5820000  16.7190000   0.7390000  10.9370000
  16.9240000  -0.6520000  10.3780000  11.8260000  18.9050000  12.6880000
  10.9690000  18.6340000  12.3600000  12.1810000  18.1210000  13.1070000
  17.3230000   4.4440000  35.1140000  16.4710000   4.4220000  34.6790000
  17.6430000   5.3350000  34.9720000  13.8330000  32.2700000   2.8360000
  13.6860000  31.6060000   3.5090000  12.9600000  32.4620000   2.4940000
   6.9580000  19.0970000  25.9660000   6.0690000  19.4250000  26.0970000
   7.5230000  19.8010000  26.2860000  20.4260000   8.5270000  39.0390000
  20.0240000   8.0300000  38.3260000  20.9210000   9.2190000  38.5990000
  37.8810000  27.9240000  19.2600000  37.4940000  28.0910000  20.1190000
  37.3700000  27.1980000  18.9030000   6.0650000  43.6160000  11.9540000
   6.3850000  42.7140000  11.9250000   6.8440000  44.1510000  11.8060000
  39.6190000  27.3700000  12.4760000  39.1080000  26.5840000  12.6690000
  40.0340000  27.1850000  11.6340000  42.3540000  42.0760000  13.3000000
  41.6500000  41.8330000  12.7000000  42.2810000  41.4500000  14.0210000
   2.0400000  38.0370000  40.2770000   2.1840000  37.6450000  41.1390000
   1.8770000  37.2910000  39.6990000   3.4740000   3.3120000   9.3960000
   4.2250000   3.9050000   9.3910000   3.8350000   2.4700000   9.6730000
  36.8520000  15.2080000   1.5680000  36.7590000  15.9200000   0.9350000
  37.7910000  15.0230000   1.5840000  21.0130000  35.3870000  30.0560000
  20.9700000  36.3320000  29.9080000  21.8790000  35.1340000  29.7360000
  44.3200000  18.6360000  38.7520000  45.1280000  18.6490000  39.2650000
  43.8170000  19.3820000  39.0790000  38.9490000  43.1080000  32.3120000
  38.2420000  42.7930000  31.7490000  38.5080000  43.4040000  33.1080000
   3.3690000  11.3380000  39.2870000   2.9710000  10.5950000  39.7420000
   2.9860000  11.3150000  38.4100000  19.7890000  43.3210000  22.1930000
  19.6530000  42.4050000  21.9470000  20.7370000  43.4440000  22.1420000
  22.9130000  24.4650000  30.1740000  22.4630000  25.3090000  30.1700000
  23.5660000  24.5450000  30.8690000  10.6480000   7.5340000   8.9560000
  11.0680000   7.1180000   9.7090000  10.8230000   6.9400000   8.2260000
  44.8660000  24.4970000  10.3650000  45.2030000  24.8150000  11.2030000
  44.6710000  23.5730000  10.5200000  18.4900000  15.4030000  32.3840000
  17.8530000  15.6030000  31.6990000  18.2310000  14.5410000  32.7090000
  21.0010000  26.5790000  26.9850000  20.8300000  25.8580000  26.3800000
  20.7260000  27.3630000  26.5080000  21.5040000  23.0780000  33.4130000
  20.8400000  22.9740000  34.0940000  22.3030000  23.3020000  33.8900000
   1.7980000  21.5240000  36.4980000   2.7350000  21.7020000  36.4150000
   1.7530000  20.6460000  36.8750000  34.8700000  19.0660000   4.9190000
  34.2480000  18.7510000   5.5740000  35.1710000  19.9090000   5.2590000
  12.5980000  38.0480000  32.0840000  12.5860000  38.8910000  31.6310000
  11.6760000  37.8010000  32.1540000  32.1810000  41.3600000  17.6130000
  31.4250000  40.8010000  17.7930000  31.8050000  42.2240000  17.4440000
  31.5910000  31.7150000  27.7810000  31.8890000  31.0340000  27.1780000
  32.2900000  31.7810000  28.4320000  31.8000000  42.1880000  32.0390000
  30.9910000  42.6990000  32.0150000  31.5210000  41.2900000  31.8610000
  37.7790000  26.4170000  25.8820000  38.0770000  25.5220000  26.0380000
  37.7260000  26.4900000  24.9290000  41.8320000  16.1040000  32.7200000
  41.7490000  15.6590000  33.5640000  41.2150000  15.6480000  32.1470000
  40.1370000  35.0680000  14.5310000  39.9380000  34.2160000  14.1420000
  40.1540000  34.9040000  15.4730000  10.8440000  33.5490000  20.5290000
  10.8990000  32.6290000  20.2710000  10.0820000  33.5890000  21.1080000
  39.6490000  11.7860000  25.8290000  39.9870000  12.0030000  24.9600000
  40.4150000  11.8280000  26.4010000  32.6390000  15.4660000  15.5790000
  33.5550000  15.2060000  15.6800000  32.5570000  15.6950000  14.6530000
   6.8670000   6.4840000  14.2110000   6.8760000   7.1270000  14.9200000
   6.0360000   6.0210000  14.3180000   9.7940000  38.1810000  19.0680000
  10.4830000  38.6900000  18.6400000   8.9810000  38.6180000  18.8160000
  35.0910000  33.6510000  31.7110000  35.3490000  32.8260000  31.3000000
  34.2370000  33.8530000  31.3300000  32.7850000  33.7410000  23.4520000
  33.2310000  34.3460000  24.0450000  33.0060000  34.0590000  22.5760000
  17.9040000  21.6840000  32.8250000  17.7860000  20.8290000  32.4110000
  17.1220000  22.1790000  32.5800000   7.9400000  18.0780000  23.6260000
   7.5040000  18.7040000  23.0470000   7.7080000  18.3670000  24.5090000
  26.0010000  36.4130000  24.2810000  26.2810000  37.2280000  23.8640000
  26.6570000  35.7700000  24.0150000  30.1760000   1.6650000   8.3990000
  30.7270000   0.9050000   8.5850000  30.6160000   2.3930000   8.8380000
  44.7170000  23.3170000  18.6110000  43.8140000  23.6280000  18.6650000
  45.2200000  23.9490000  19.1250000  25.1680000  22.9980000  41.6760000
  24.2590000  22.7240000  41.7980000  25.6750000  22.3940000  42.2180000
  14.3300000  30.5040000  34.5410000  14.3120000  30.9050000  33.6720000
  14.7930000  29.6770000  34.4140000  26.6420000  37.3370000  13.1740000
  26.3290000  36.5910000  12.6630000  26.9520000  37.9630000  12.5200000
  11.2410000  30.5850000  20.6260000  10.3180000  30.8370000  20.6380000
  11.4250000  30.3060000  21.5230000   4.2970000  25.5090000  36.3120000
   3.4040000  25.3780000  36.6300000   4.6690000  26.1620000  36.9050000
   3.6540000   1.6530000   6.5680000   4.2570000   1.1400000   7.1060000
   2.7840000   1.3390000   6.8170000   5.1630000  33.0870000  16.5640000
   5.6200000  33.8980000  16.3370000   5.1360000  33.0880000  17.5210000
  23.7370000  39.0770000  26.8160000  23.4730000  39.0880000  27.7350000
  23.8540000  38.1490000  26.6110000  41.9590000   3.1830000  34.1280000
  41.5780000   2.7460000  33.3670000  42.4450000   3.9210000  33.7620000
  30.6480000  28.3040000  33.6160000  30.3220000  27.5160000  34.0500000
  31.2670000  28.6830000  34.2410000  19.5250000  29.1620000  26.5200000
  19.0560000  29.9440000  26.2300000  18.9230000  28.7330000  27.1280000
  13.6590000   8.7310000  13.9460000  12.9290000   8.4070000  14.4750000
  13.2760000   9.4280000  13.4130000  34.8890000  19.7750000  24.0580000
  34.2290000  20.1640000  23.4850000  35.7150000  19.8920000  23.5880000
  22.2170000  13.9130000  11.2270000  21.3150000  14.2160000  11.3290000
  22.2630000  13.5970000  10.3240000   4.8590000  10.4950000  36.0710000
   4.7340000  10.0580000  35.2290000   3.9750000  10.6000000  36.4210000
  27.4860000  41.9410000  38.7710000  27.3930000  41.1270000  39.2670000
  28.3600000  41.8860000  38.3840000   5.4870000   4.6040000  19.8820000
   4.6730000   4.1200000  19.7470000   6.1350000   4.1350000  19.3570000
  25.5630000   8.9020000   7.8480000  25.9550000   9.5730000   7.2890000
  24.6600000   9.1930000   7.9730000  22.0570000  22.7360000   7.1370000
  21.1390000  22.4730000   7.0800000  22.3010000  22.5570000   8.0450000
  36.7240000  21.7540000  38.6130000  35.8540000  22.1230000  38.4630000
  36.7760000  21.0100000  38.0120000  26.9090000  10.3560000  32.5780000
  26.9000000   9.4000000  32.5310000  25.9850000  10.6030000  32.6070000
  26.6250000  31.5790000  22.5630000  25.6930000  31.6790000  22.3670000
  26.7050000  30.6860000  22.8960000  37.7430000  20.1200000  34.6560000
  37.5460000  19.7830000  33.7820000  37.4640000  21.0350000  34.6280000
  41.7620000  32.7050000   5.0910000  41.2980000  31.8690000   5.1350000
  42.5950000  32.4950000   4.6690000  16.0180000   6.6210000  20.4940000
  16.3110000   5.7830000  20.8530000  16.8270000   7.0860000  20.2810000
  38.7190000  25.7170000  21.0170000  38.6960000  26.6100000  20.6730000
  38.4960000  25.1660000  20.2670000  40.1110000  21.1760000   0.1510000
  39.6000000  20.7980000   0.8670000  40.7630000  21.7250000   0.5870000
  22.6090000  26.4820000  40.3160000  23.0540000  26.0880000  39.5650000
  23.3160000  26.7110000  40.9200000  17.9560000  33.4140000  30.0480000
  18.5350000  32.8050000  29.5910000  18.2420000  33.3780000  30.9610000
  26.2550000   9.4840000  38.5150000  26.7070000  10.2650000  38.1930000
  26.6200000   9.3390000  39.3880000   1.6650000  30.2600000  41.1750000
   1.4770000  30.2210000  42.1130000   1.1620000  31.0110000  40.8610000
  42.1920000  20.5390000  39.0970000  41.4200000  19.9880000  39.2270000
  41.9530000  21.1200000  38.3740000  15.7460000  29.9810000   9.5680000
  15.4260000  30.7210000  10.0830000  16.4320000  29.5910000  10.1100000
  13.0470000   1.0980000  18.4680000  13.4340000   1.4600000  17.6710000
  13.7380000   0.5530000  18.8440000   3.0490000   0.9250000  38.3450000
   3.1920000   1.8140000  38.6690000   3.6640000   0.8340000  37.6170000
  15.7680000  11.8380000   1.7800000  14.8350000  11.8560000   1.5700000
  15.8380000  11.2190000   2.5070000  30.2400000  30.4100000   0.6140000
  30.2050000  30.7710000   1.4990000  29.3360000  30.1570000   0.4230000
  17.2470000   3.2700000   7.4230000  17.4390000   4.1880000   7.2300000
  17.8600000   3.0380000   8.1200000  23.0670000  38.7610000  29.5110000
  23.8150000  39.1760000  29.9400000  22.7010000  38.1790000  30.1770000
   4.6940000  22.9680000  18.4980000   4.7260000  23.6390000  17.8160000
   5.5960000  22.9020000  18.8110000  25.2350000  38.1390000   4.5390000
  25.3320000  39.0560000   4.7960000  24.3810000  38.1000000   4.1080000
  32.5430000  12.2820000  26.6500000  32.0170000  11.6220000  26.1990000
  32.7080000  12.9510000  25.9860000  19.1080000   3.6400000  31.2010000
  18.5290000   2.8780000  31.2520000  19.9510000   3.3210000  31.5220000
  12.0800000  29.0570000  40.6490000  12.5150000  29.7990000  40.2280000
  12.7590000  28.6590000  41.1940000  22.8930000   7.8680000   1.9430000
  23.2830000   7.6480000   2.7890000  23.6420000   8.0390000   1.3710000
   6.0320000  16.3250000   1.7270000   6.2090000  16.9130000   0.9920000
   5.7340000  15.5130000   1.3170000   6.3770000  29.2580000  27.8660000
   6.4910000  28.3080000  27.8290000   5.9010000  29.4100000  28.6820000
   7.6020000  21.5250000   8.1930000   7.2500000  20.6680000   8.4370000
   8.2040000  21.7470000   8.9030000  43.5930000  38.1110000  40.2150000
  42.7020000  37.7630000  40.1710000  43.5000000  38.9520000  40.6620000
   3.0430000  23.0710000  13.3250000   3.2530000  22.7540000  14.2030000
   2.1390000  22.7910000  13.1800000   0.5930000  20.2050000   7.5270000
   1.0570000  20.6370000   6.8110000   0.6600000  19.2710000   7.3270000
  35.4900000  40.2130000  35.2350000  35.9920000  40.3660000  34.4340000
  35.6850000  40.9690000  35.7880000  27.0300000   7.3810000   9.4360000
  26.4470000   7.9130000   8.8940000  26.8480000   6.4800000   9.1690000
  16.2730000  22.1060000  15.1240000  16.0650000  22.1820000  14.1930000
  15.4480000  21.8450000  15.5340000  44.1470000  13.2780000  33.6620000
  43.2550000  12.9900000  33.8580000  44.5640000  12.5120000  33.2670000
  16.8490000  23.6420000   4.4620000  16.8560000  22.9060000   3.8490000
  15.9390000  23.9400000   4.4680000  23.6750000  19.1670000  31.7130000
  24.2680000  19.2610000  30.9680000  23.2360000  20.0140000  31.7790000
  41.3000000  14.8480000  19.8920000  42.1120000  14.3720000  20.0650000
  41.3930000  15.6660000  20.3810000  40.0970000  14.8650000  30.8330000
  39.8590000  15.7470000  30.5480000  40.1640000  14.3610000  30.0220000
  26.6760000  29.7180000  36.9740000  26.8870000  29.9730000  36.0760000
  26.1310000  28.9370000  36.8800000  11.0350000   9.0960000   6.1170000
  10.3430000   9.0270000   5.4600000  10.7950000   8.4540000   6.7850000
  20.1620000  10.8420000   7.8830000  19.7810000  10.0540000   7.4960000
  19.4090000  11.3550000   8.1740000  42.5690000  29.9710000  14.6950000
  41.6620000  30.2580000  14.5870000  43.0920000  30.6870000  14.3330000
  38.8210000   6.5650000   8.2500000  38.4160000   6.1120000   7.5110000
  39.1850000   7.3640000   7.8710000  10.5490000   7.0700000  13.3850000
  10.9220000   6.5100000  14.0660000  10.0870000   7.7560000  13.8660000
  32.7090000  27.4140000   5.5690000  33.2360000  27.2240000   4.7930000
  32.8840000  26.6830000   6.1620000   7.8710000  33.5080000  11.7720000
   7.3820000  33.7900000  12.5450000   8.0690000  32.5860000  11.9370000
   4.1980000   5.9070000  11.0750000   4.5970000   5.4280000  10.3490000
   3.9910000   5.2320000  11.7220000  19.9810000  30.4680000  10.7570000
  19.8920000  29.5310000  10.9310000  19.8180000  30.5530000   9.8180000
  20.1420000  12.4980000  33.5080000  20.8260000  12.1710000  32.9230000
  20.6190000  12.9420000  34.2090000  13.6490000  19.4570000  28.3840000
  13.7910000  18.7390000  29.0000000  13.2930000  19.0360000  27.6020000
  32.9850000  42.4160000  37.9290000  32.6690000  41.7420000  38.5310000
  32.9300000  42.0100000  37.0640000   7.2520000   3.5240000   3.7270000
   7.6030000   3.7440000   2.8640000   7.9060000   2.9380000   4.1090000
  10.8990000  13.8260000  10.3120000  11.0370000  14.0690000  11.2280000
  11.6720000  13.3090000  10.0830000  30.5980000  43.2690000  25.0550000
  30.0470000  43.9320000  24.6400000  30.3650000  43.3080000  25.9820000
  23.6000000  27.8860000  27.3440000  22.9830000  27.1700000  27.1930000
  23.7370000  28.2720000  26.4790000  42.1110000  24.0430000  14.1300000
  42.7930000  23.6790000  14.6940000  42.1700000  24.9890000  14.2640000
   4.1560000   4.3080000  36.6550000   4.1790000   3.9120000  35.7840000
   4.7180000   5.0800000  36.5820000  29.7020000  38.9800000   1.8360000
  29.0200000  38.3120000   1.7690000  30.4950000  38.4920000   2.0560000
   5.6270000  14.4940000  19.8540000   6.0360000  13.9260000  20.5070000
   5.6360000  15.3630000  20.2530000  38.3400000  35.0790000  35.2010000
  39.2060000  34.8000000  34.9030000  37.7930000  34.2980000  35.1140000
  42.7610000  15.3760000  40.2430000  43.2710000  15.7410000  39.5200000
  41.8840000  15.7430000  40.1280000  25.2470000  21.1480000   8.8900000
  24.7900000  20.4440000   9.3500000  24.7810000  21.2320000   8.0580000
  27.1650000  30.8060000  34.4190000  28.1170000  30.8970000  34.4470000
  26.8890000  31.3930000  33.7150000  35.3570000  16.4330000  33.3290000
  35.1140000  17.3490000  33.2010000  34.8340000  15.9540000  32.6870000
  27.8130000   0.9710000   6.9900000  27.6120000   0.0380000   7.0590000
  28.7680000   1.0070000   6.9440000  38.2050000  42.6730000  19.2700000
  37.9890000  43.4410000  18.7400000  39.0550000  42.8810000  19.6570000
   7.5510000  36.8870000  37.8180000   7.0850000  37.4800000  37.2290000
   8.3360000  36.6360000  37.3330000   4.4500000  15.0410000  11.7410000
   4.4450000  14.1110000  11.5120000   3.6400000  15.1690000  12.2360000
  40.8920000  29.9530000  33.2750000  41.6630000  30.5200000  33.2570000
  40.3940000  30.2020000  32.4970000  34.1700000  37.7640000   1.7420000
  34.0630000  36.8790000   2.0910000  34.9680000  38.0900000   2.1570000
   0.3130000  36.7400000  26.6840000   1.0260000  37.3760000  26.7390000
  -0.4120000  37.1520000  27.1550000  17.2830000  28.3160000  27.7710000
  16.3750000  28.4240000  28.0560000  17.2730000  27.5240000  27.2330000
   7.9910000  14.7250000  26.5350000   7.1380000  15.1590000  26.5260000
   8.0340000  14.2650000  25.6970000  29.8990000  24.1000000  17.8910000
  29.7790000  23.5330000  17.1290000  30.2590000  24.9110000  17.5310000
   7.6880000  30.7970000  12.4720000   8.5780000  30.4530000  12.5490000
   7.1530000  30.0310000  12.2640000   4.8780000  17.8740000   4.9740000
   5.1260000  18.6210000   4.4300000   5.3790000  17.1400000   4.6170000
  30.9460000  14.9410000   1.3840000  31.7840000  14.5990000   1.0720000
  30.5970000  15.4320000   0.6410000  17.2640000   0.3200000  22.9260000
  18.2210000   0.2850000  22.9480000  17.0020000   0.2740000  23.8450000
  40.6220000  35.2170000   4.7390000  41.5420000  35.3390000   4.9720000
  40.4640000  34.2820000   4.8650000  40.5070000  26.0480000  29.1040000
  41.4510000  25.9210000  29.1920000  40.2520000  26.5100000  29.9020000
  14.8420000  38.9820000   1.0740000  15.6750000  39.2340000   0.6760000
  14.8690000  38.0250000   1.1000000   4.9010000  28.2050000   2.9200000
   4.1220000  28.2680000   3.4730000   5.4040000  27.4820000   3.2950000
   7.8340000  34.4210000   6.3260000   7.8880000  34.4930000   5.3730000
   7.2810000  33.6550000   6.4770000   5.4970000   6.4890000   4.6470000
   5.7450000   7.1190000   3.9700000   6.2390000   6.4830000   5.2520000
  43.6810000   8.0920000  41.7360000  43.8220000   8.6850000  42.4740000
  42.7360000   7.9430000  41.7250000  14.0380000   7.4580000  36.8090000
  13.3090000   7.9760000  37.1500000  14.6050000   8.0960000  36.3770000
  19.6700000  20.0820000  13.9250000  20.5690000  20.0330000  14.2500000
  19.1290000  19.8860000  14.6900000  25.2340000   3.4860000  28.6930000
  24.4200000   3.4160000  28.1940000  25.7260000   2.6990000  28.4600000
  44.1710000  42.7680000  37.7800000  44.0580000  43.5370000  38.3390000
  44.1970000  43.1200000  36.8900000  35.6780000  19.5770000   1.1270000
  35.3170000  20.3330000   0.6640000  34.9380000  18.9760000   1.2170000
  36.9790000  27.5690000  28.0580000  36.8060000  26.8110000  28.6160000
  37.2040000  27.1940000  27.2070000  27.3190000  33.9250000  23.8750000
  28.2320000  34.0180000  23.6060000  27.0510000  33.0750000  23.5240000
  23.4220000   0.3710000  16.7580000  23.4470000   0.0310000  15.8630000
  23.8550000   1.2230000  16.7020000  22.2690000  37.5600000  31.9220000
  22.6210000  36.6740000  32.0090000  22.6470000  38.0420000  32.6570000
   9.7000000  37.8040000  15.0650000  10.4240000  37.3670000  15.5140000
   9.0070000  37.8560000  15.7230000   8.4070000  21.2800000  27.6070000
   9.2320000  20.9040000  27.9130000   7.9370000  21.5110000  28.4090000
  16.4630000  38.4670000  29.5130000  16.6480000  38.2720000  28.5940000
  17.2670000  38.8720000  29.8390000  37.1850000   4.8290000   2.5070000
  36.9480000   4.8860000   3.4330000  36.6640000   4.1000000   2.1710000
  41.4030000   6.1120000  27.0170000  40.8410000   5.9660000  26.2560000
  42.1840000   5.5880000  26.8420000  14.0320000   6.7350000  32.9380000
  14.1050000   6.2000000  33.7280000  14.9280000   7.0160000  32.7540000
   2.7530000   3.8380000   0.5070000   3.3230000   4.0140000   1.2560000
   2.9870000   4.5090000  -0.1350000  25.0840000  19.6390000  21.2200000
  24.9140000  20.3220000  20.5720000  24.2280000  19.2390000  21.3760000
  39.3180000  13.4030000  28.3250000  38.5480000  13.7720000  28.7570000
  38.9980000  12.6050000  27.9050000  28.1060000  28.8580000  11.8610000
  27.9290000  28.1180000  11.2810000  29.0080000  29.1090000  11.6620000
  11.8290000  10.1000000  28.2700000  11.7990000  10.4230000  29.1700000
  11.4710000   9.2140000  28.3200000   5.5130000  22.8120000  22.3620000
   5.0370000  23.6120000  22.5840000   4.8980000  22.1050000  22.5570000
  38.1530000  16.4780000  32.9760000  37.2860000  16.5910000  33.3680000
  37.9960000  16.5200000  32.0330000  23.3940000  26.2160000  12.0220000
  24.0910000  26.0550000  12.6580000  22.6520000  25.7060000  12.3460000
  23.4560000  32.3850000  37.5570000  22.8320000  32.1810000  38.2540000
  22.9180000  32.4610000  36.7690000  32.2340000  40.8310000  11.6120000
  31.8060000  40.1710000  12.1580000  32.1520000  41.6440000  12.1090000
  23.1510000  25.1000000  21.2520000  22.8740000  24.2970000  20.8110000
  23.0060000  24.9240000  22.1820000  28.2380000  42.0990000  35.6090000
  27.8080000  41.6080000  34.9090000  29.1710000  42.0370000  35.4060000
  42.5060000  34.4230000   0.2180000  43.1510000  34.8130000  -0.3720000
  42.4220000  35.0550000   0.9320000  34.2860000   4.1580000  31.4930000
  33.4240000   4.5690000  31.5660000  34.3220000   3.5460000  32.2280000
  22.5550000  11.7750000   9.1710000  23.2000000  11.0860000   9.0140000
  21.7810000  11.4950000   8.6820000  38.7700000  14.9220000  23.0760000
  39.7200000  14.9070000  22.9610000  38.5810000  15.8020000  23.4010000
   2.6510000   0.6950000  33.4890000   2.2290000   0.2030000  32.7840000
   3.1900000   0.0470000  33.9430000  22.9030000  39.9640000   5.0700000
  21.9830000  40.1620000   5.2450000  22.9700000  39.9620000   4.1150000
   6.5830000  38.0420000  33.0870000   5.7720000  37.7030000  32.7080000
   7.1710000  37.2870000  33.1110000   8.3010000  30.2240000  18.1930000
   7.3870000  30.0400000  18.4100000   8.7980000  29.8580000  18.9240000
  19.3720000  34.0370000  20.7460000  19.2000000  33.2010000  21.1780000
  20.0900000  33.8520000  20.1410000  16.7130000  41.3260000  16.1860000
  16.2200000  40.5140000  16.3050000  17.1100000  41.2410000  15.3190000
  13.0450000  25.5950000  29.5760000  12.6520000  24.9050000  30.1100000
  12.3740000  26.2760000  29.5330000  16.5690000  37.1040000  33.9460000
  16.4460000  37.8420000  33.3490000  17.4550000  36.7920000  33.7620000
  37.0020000  12.5880000  32.3200000  37.5830000  13.2970000  32.5950000
  37.4710000  11.7880000  32.5590000  44.2630000  36.4110000  35.5310000
  44.5150000  36.8480000  36.3440000  44.2190000  37.1150000  34.8840000
  30.3780000   6.5330000   3.8940000  30.8250000   7.3330000   3.6170000
  30.9730000   5.8270000   3.6400000  43.7010000  21.0610000  41.4430000
  43.0640000  21.2790000  42.1230000  43.1690000  20.8410000  40.6780000
  13.3780000  24.7780000  12.8900000  12.8570000  25.4960000  13.2480000
  13.8460000  25.1670000  12.1510000  26.5650000  14.3410000  35.4910000
  26.9030000  13.7640000  34.8060000  26.8610000  13.9420000  36.3090000
  38.5460000  10.6730000  41.9780000  37.9670000  10.1760000  41.4000000
  38.1020000  11.5130000  42.0970000   9.1070000  11.4900000  11.1660000
   8.3370000  11.6150000  11.7220000   9.4100000  12.3780000  10.9750000
   4.9230000  27.1610000  25.6370000   4.6770000  26.3310000  26.0450000
   4.2630000  27.7830000  25.9420000  30.8590000  10.6050000  34.7440000
  30.4360000  10.2950000  33.9430000  31.7000000  10.9540000  34.4510000
  26.4580000  12.1810000   8.4660000  26.6860000  13.0910000   8.2720000
  26.5340000  11.7300000   7.6250000  32.5200000   0.3700000  10.0030000
  33.3820000   0.7870000  10.0260000  32.6420000  -0.4570000  10.4690000
   9.0220000  16.0800000  36.9320000   8.6000000  15.3100000  37.3140000
   8.2970000  16.6590000  36.6970000  12.9110000  12.1580000   5.1860000
  13.1880000  11.6980000   4.3940000  11.9660000  12.2700000   5.0790000
  29.1530000  34.3260000   6.9670000  28.6640000  34.4430000   7.7810000
  30.0640000  34.4910000   7.2090000  16.3270000  33.1370000   2.4490000
  16.6770000  32.3780000   2.9140000  15.3810000  32.9890000   2.4270000
   9.7550000  27.1340000  12.4880000  10.4330000  27.1610000  11.8130000
   9.0410000  27.6630000  12.1320000   2.1190000  11.0710000  18.2480000
   1.4290000  11.1320000  18.9080000   2.9330000  11.1610000  18.7430000
   1.2210000  22.7170000  21.1820000   1.0330000  23.6070000  21.4800000
   0.7800000  22.6500000  20.3350000  31.7080000  17.1240000  27.8620000
  30.9930000  16.5480000  27.5920000  32.5010000  16.6830000  27.5550000
  38.5800000  23.7450000   0.8870000  38.1020000  23.3690000   0.1480000
  38.3720000  24.6780000   0.8570000  35.6400000  41.9380000  12.0600000
  36.3150000  41.7200000  12.7030000  34.8200000  41.6630000  12.4700000
  41.2240000  40.7760000  23.2930000  40.6630000  41.5220000  23.5060000
  42.1100000  41.1380000  23.2790000   1.5930000  16.4090000   0.1800000
   0.9360000  17.1050000   0.1470000   1.9560000  16.4640000   1.0630000
   9.6010000   0.9120000   0.7260000   8.6480000   0.9710000   0.6580000
   9.9150000   1.7710000   0.4450000  11.1100000   0.0850000  26.0620000
  10.9160000  -0.3370000  26.8990000  11.9970000   0.4290000  26.1670000
  16.9950000  39.8910000  42.0040000  16.4230000  40.6450000  42.1510000
  17.6620000  40.2110000  41.3970000  24.0460000  22.6140000  11.5520000
  24.8990000  22.7400000  11.1370000  24.1030000  21.7490000  11.9580000
   5.1670000   5.7300000  22.2150000   5.0690000   5.1040000  22.9320000
   5.4780000   5.2040000  21.4780000  38.4740000  18.2800000   8.7950000
  38.7830000  17.5020000   9.2600000  38.9710000  19.0020000   9.1790000
  20.4240000  25.5730000  32.7200000  20.9610000  24.7910000  32.8450000
  19.6750000  25.2700000  32.2070000  41.8320000  38.7210000  31.2980000
  41.0320000  39.1810000  31.5540000  42.1310000  39.1800000  30.5130000
  29.3350000  39.5150000  29.6760000  29.5720000  38.7040000  29.2260000
  30.0080000  39.6220000  30.3480000  25.9850000  35.6910000   5.9350000
  26.2960000  35.0390000   5.3080000  25.8720000  36.4880000   5.4160000
  26.9620000   7.3440000   5.3440000  27.1860000   6.9430000   6.1840000
  26.7770000   6.6020000   4.7670000  36.8490000  25.6770000  22.9180000
  36.6990000  24.8370000  23.3500000  37.5370000  25.4980000  22.2770000
  15.3010000  39.9710000  19.6470000  16.2240000  39.7160000  19.6410000
  14.8360000  39.1920000  19.3430000   4.4210000  10.3510000  16.4300000
   4.3180000  10.9710000  17.1520000   4.6500000  10.8960000  15.6780000
   3.8650000  19.1870000  21.4700000   3.0920000  18.7830000  21.8660000
   3.5240000  19.9520000  21.0060000  36.4170000  18.5710000  40.1130000
  35.8880000  19.2960000  39.7810000  37.3070000  18.9200000  40.1490000
   0.3100000  12.1920000  40.0020000   0.1250000  11.3010000  39.7040000
   0.2420000  12.7280000  39.2120000  29.7960000  36.1690000  11.2630000
  29.6840000  36.8530000  10.6030000  30.5620000  36.4450000  11.7660000
  17.7990000  32.4630000   7.0340000  17.7910000  32.5740000   7.9850000
  17.5670000  31.5450000   6.8970000   7.8650000  11.3320000  14.1440000
   7.2020000  11.4150000  14.8290000   7.5300000  11.8620000  13.4210000
  19.7940000  21.3220000   7.1570000  19.6090000  20.3860000   7.0760000
  19.0740000  21.6630000   7.6880000  24.2800000  16.6950000  33.1560000
  24.3360000  17.6430000  33.0300000  25.0190000  16.3430000  32.6600000
  28.9560000   7.0090000  42.0720000  28.8120000   7.1790000  43.0030000
  28.2560000   6.4040000  41.8280000  11.7720000  29.3420000  30.6860000
  12.1170000  29.0090000  29.8580000  10.8230000  29.2530000  30.6030000
  37.7470000  36.6000000  27.1310000  38.4780000  36.2420000  26.6270000
  37.1090000  36.8690000  26.4700000  28.7910000  10.2870000  20.6980000
  28.1030000  10.9460000  20.6050000  28.4790000   9.5410000  20.1870000
   7.5580000  35.1980000  30.0030000   6.6260000  35.2500000  30.2150000
   7.7780000  34.2730000  30.1170000  12.0060000  26.7590000  14.2480000
  12.2030000  27.6920000  14.3260000  11.1510000  26.7300000  13.8190000
  37.4940000  28.8390000  10.7370000  37.4410000  28.0300000  11.2470000
  36.6700000  29.2900000  10.9180000  13.9660000   2.1540000  16.1980000
  14.4420000   2.9840000  16.1570000  13.7960000   1.9310000  15.2830000
   6.4480000  37.4780000   5.8620000   6.9540000  37.8480000   5.1390000
   6.4650000  36.5330000   5.7080000  10.9220000   1.7490000  15.5300000
  11.2530000   1.4160000  14.6960000  11.1010000   1.0480000  16.1570000
   7.1250000   6.8700000  23.6110000   6.4210000   6.6210000  23.0120000
   7.1110000   6.1960000  24.2900000  11.7380000  41.6760000   3.1480000
  11.3660000  42.5550000   3.0820000  11.6120000  41.4310000   4.0650000
   6.5690000  29.9950000   7.8080000   7.3620000  30.5290000   7.8580000
   6.6070000  29.5900000   6.9410000  13.4080000  20.3140000   0.2340000
  13.5890000  19.4550000   0.6160000  14.1900000  20.8310000   0.4270000
  34.3010000  14.2330000  31.6550000  34.7210000  13.3730000  31.6410000
  33.9590000  14.3470000  30.7690000  42.5610000  13.7100000  26.4160000
  43.2190000  13.5240000  27.0860000  43.0520000  13.7150000  25.5940000
  26.9790000  38.7560000  35.5660000  26.8240000  39.6210000  35.9460000
  27.7520000  38.8720000  35.0130000  27.3050000  30.0190000   7.3360000
  27.7810000  30.4770000   6.6430000  26.4110000  30.3570000   7.2750000
  31.1680000  38.1910000   5.2160000  31.0130000  37.4900000   4.5830000
  31.2010000  38.9880000   4.6880000   4.8930000  31.3140000  39.9700000
   4.4840000  30.4490000  39.9780000   5.1590000  31.4620000  40.8780000
  32.8950000  37.3230000   7.2390000  33.4500000  38.1000000   7.1670000
  32.1510000  37.5050000   6.6650000  37.6430000  32.5750000  24.6620000
  37.2240000  32.9370000  23.8820000  37.1960000  33.0010000  25.3940000
  27.7870000  19.8640000  21.3980000  26.9010000  19.8920000  21.7600000
  28.2690000  19.2850000  21.9880000  28.3570000   7.2160000  21.3240000
  29.0290000   6.9950000  21.9680000  28.8480000   7.5180000  20.5600000
   9.8280000  14.3100000  20.8260000   9.6150000  14.8650000  21.5760000
   9.4330000  13.4630000  21.0350000  14.4150000  42.7930000  16.0010000
  14.1840000  43.3280000  15.2420000  15.3680000  42.7080000  15.9530000
  19.4750000  31.5030000  28.4320000  19.1350000  32.0470000  27.7210000
  20.4230000  31.6280000  28.3980000  31.7200000  20.8370000  33.5520000
  32.1690000  20.4700000  32.7900000  31.0120000  20.2200000  33.7330000
  18.8900000   4.2920000  18.9880000  18.0500000   4.1990000  18.5380000
  19.0680000   3.4220000  19.3450000   9.5040000  22.4010000   9.8300000
   8.8880000  23.0000000  10.2510000  10.3670000  22.7590000  10.0380000
   5.6290000  25.3430000   7.4720000   5.8120000  25.5980000   8.3760000
   4.9880000  24.6360000   7.5480000   5.8350000  24.6030000  16.6650000
   6.0930000  25.1580000  17.4010000   6.6020000  24.5940000  16.0920000
  31.9420000  40.8670000  20.6700000  32.4260000  41.6590000  20.4380000
  31.2010000  40.8540000  20.0640000   8.0500000  41.5420000  11.6270000
   8.9450000  41.3610000  11.9140000   7.9400000  41.0100000  10.8390000
  19.9270000   5.5510000  16.4950000  20.0920000   5.1310000  17.3380000
  20.5720000   5.1630000  15.9030000  29.0680000  12.9930000  23.7390000
  29.1430000  12.1120000  23.3740000  29.3240000  12.8950000  24.6570000
  13.3950000  22.1240000  28.3670000  14.3020000  22.4070000  28.4840000
  13.4460000  21.1680000  28.3320000  42.9960000   6.1890000  36.1320000
  42.6540000   5.6280000  36.8280000  43.4520000   5.5880000  35.5430000
  44.0810000  26.4490000   4.1700000  44.9050000  26.0300000   3.9220000
  44.1020000  27.2990000   3.7300000  18.3830000  22.7370000  22.9360000
  18.0220000  22.4860000  22.0850000  18.0020000  23.5970000  23.1130000
  30.6100000   9.2030000   9.5050000  30.1250000  10.0010000   9.7140000
  30.2250000   8.5340000  10.0710000  35.4670000  40.8670000   5.2260000
  35.8190000  40.5810000   4.3840000  36.2270000  41.1980000   5.7040000
  35.0240000   8.0790000  16.0100000  34.9900000   8.6390000  16.7860000
  35.8870000   7.6670000  16.0490000  40.6970000  36.7480000  18.3820000
  40.6770000  37.4800000  18.9980000  40.5500000  37.1510000  17.5260000
   3.8950000  30.8010000  15.2990000   4.2520000  31.6240000  15.6310000
   4.3310000  30.1240000  15.8170000  42.9280000  35.0900000  25.8350000
  43.1480000  35.3090000  24.9300000  42.8830000  35.9350000  26.2820000
  10.8280000   8.7770000  35.3810000  10.8920000   8.0400000  34.7740000
  11.2960000   8.4850000  36.1630000  18.2460000   9.2190000  12.2220000
  17.5160000   9.8260000  12.0950000  19.0210000   9.7790000  12.2470000
   2.4770000   5.0240000  32.7270000   1.9630000   4.4940000  32.1190000
   2.0280000   5.8690000  32.7470000  36.3340000  23.2040000  10.4250000
  36.0910000  22.3410000  10.7610000  36.1850000  23.1440000   9.4810000
  34.7550000  42.8300000  22.8030000  34.0280000  43.3990000  22.5460000
  35.0930000  42.4860000  21.9760000  33.2580000  38.6530000  21.4940000
  33.9350000  38.8040000  22.1530000  32.9150000  39.5250000  21.2980000
  21.9800000   4.1420000  14.7770000  22.3930000   4.6480000  14.0770000
  22.6170000   3.4580000  14.9860000  13.2240000   4.2410000  21.7260000
  12.9810000   5.0580000  21.2900000  14.0540000   3.9900000  21.3200000
   7.7130000  41.3890000  35.3620000   7.5490000  42.2380000  34.9520000
   7.5080000  41.5260000  36.2870000  38.2780000   0.7190000  34.5150000
  38.8630000   1.4590000  34.3550000  37.6720000   1.0330000  35.1860000
  37.4860000  31.4020000  13.1470000  37.3780000  31.9100000  12.3430000
  38.1120000  30.7160000  12.9140000  41.7340000  41.7300000  10.5910000
  40.8950000  41.4920000  10.9860000  42.2050000  40.9000000  10.5120000
  33.0000000   2.5010000   6.7290000  33.3040000   1.6120000   6.9090000
  32.1010000   2.3890000   6.4190000  14.1770000  25.3780000  18.8920000
  15.1320000  25.3900000  18.8380000  13.8860000  25.3540000  17.9800000
  18.6540000   1.5490000  20.6680000  18.9320000   0.9640000  21.3730000
  17.8450000   1.1590000  20.3380000   2.2100000  29.5950000  30.7780000
   2.2020000  28.6380000  30.7840000   1.9320000  29.8420000  31.6600000
  41.0580000  20.7870000  29.1530000  41.3660000  20.5630000  30.0310000
  41.2970000  20.0310000  28.6160000  15.1830000  38.6260000  32.1610000
  14.3120000  38.2290000  32.1820000  15.4670000  38.5300000  31.2520000
  26.0540000  31.8970000  38.6760000  26.0940000  31.1460000  38.0830000
  25.1490000  32.2010000  38.6150000  29.6280000   9.8540000   3.7010000
  30.1910000   9.4490000   3.0410000  29.9620000   9.5250000   4.5350000
  34.8280000  -0.2150000  34.0800000  34.1530000   0.4400000  34.2560000
  35.5640000   0.2860000  33.7280000  27.6990000   6.6500000  34.4680000
  28.0740000   6.4010000  33.6230000  27.1340000   5.9160000  34.7050000
   5.0980000  28.1950000   9.4180000   5.6590000  28.8650000   9.0280000
   4.4990000  27.9440000   8.7150000   2.9280000   7.0540000  13.4270000
   3.1430000   6.7150000  12.5580000   2.8630000   8.0010000  13.3050000
   5.6790000  43.2710000  33.0580000   6.4930000  43.3760000  33.5500000
   5.1420000  42.6940000  33.6020000   1.5320000  22.9370000   2.1600000
   0.8090000  22.7550000   2.7610000   2.3180000  22.7090000   2.6560000
  12.7560000  10.1450000  20.9720000  12.8100000   9.1940000  20.8790000
  12.1560000  10.4210000  20.2790000  26.1330000  15.0650000   8.1200000
  25.2500000  14.8800000   7.8000000  26.0540000  15.9100000   8.5640000
  43.1440000   1.9230000   8.2760000  42.5450000   2.2190000   7.5900000
  43.5310000   2.7280000   8.6200000  29.4230000   2.8120000  17.3650000
  29.7950000   2.9310000  16.4910000  29.9100000   2.0760000  17.7340000
  23.4360000   7.9070000  34.9030000  22.7480000   8.5680000  34.9750000
  24.2520000   8.3990000  34.9990000  22.3850000   1.0850000  36.6570000
  21.9460000   1.1410000  37.5060000  23.2760000   1.3900000  36.8270000
  17.7550000  19.8340000  23.3660000  17.8370000  19.6430000  24.3000000
  17.3460000  20.6990000  23.3340000  10.6850000   7.3810000  28.8350000
   9.7740000   7.5700000  28.6110000  11.0320000   6.9280000  28.0660000
  40.3570000  12.1480000  31.5780000  41.1620000  11.8230000  31.1740000
  40.3060000  13.0640000  31.3030000  41.6110000   8.5330000  17.4740000
  41.6380000   7.6010000  17.2610000  41.2790000   8.9520000  16.6800000
   2.3940000  41.4100000  40.5210000   1.9260000  41.7670000  41.2760000
   2.2430000  40.4660000  40.5710000  36.8410000  29.9930000   4.5410000
  36.2300000  29.6260000   5.1790000  37.6650000  29.5360000   4.7070000
   4.4360000  18.9480000  34.2930000   3.5530000  19.2380000  34.0610000
   4.3550000  18.0010000  34.4050000  40.0590000  34.7340000  25.8030000
  39.6830000  34.5620000  24.9400000  40.9230000  35.1030000  25.6190000
  43.5570000  16.4260000  37.6470000  43.0210000  16.6360000  36.8820000
  43.8620000  17.2760000  37.9660000  17.0380000  22.5450000  29.2860000
  17.8050000  22.0400000  29.5550000  16.4940000  22.5900000  30.0730000
  39.1420000  14.3590000  42.5060000  39.7730000  15.0780000  42.5390000
  39.1400000  14.0850000  41.5890000  44.0930000  28.3900000  21.1060000
  44.3180000  28.1600000  20.2050000  44.0170000  29.3440000  21.0990000
   7.0940000   9.9620000  38.0260000   7.2440000   9.0530000  37.7660000
   6.7020000  10.3700000  37.2540000  19.6220000  39.9930000  35.9500000
  20.2160000  40.7080000  36.1790000  20.1990000  39.2580000  35.7460000
  12.0620000  17.9660000   4.2510000  11.1770000  17.6530000   4.4330000
  11.9810000  18.4480000   3.4270000   3.3210000  32.5950000   9.6660000
   2.4760000  33.0240000   9.8000000   3.7120000  32.5590000  10.5390000
  37.0830000  35.2610000  30.9850000  36.3220000  34.6930000  30.8690000
  36.8350000  35.8530000  31.6950000  21.2360000   9.8170000  36.4460000
  20.6010000  10.4260000  36.0680000  21.9650000  10.3720000  36.7230000
  18.5810000  31.1250000  24.5760000  18.8610000  31.4850000  23.7340000
  17.6620000  31.3810000  24.6520000  40.0470000  38.0840000  16.1660000
  39.9420000  37.8600000  15.2410000  39.4190000  38.7910000  16.3140000
  25.9790000  12.4160000  25.3480000  25.3710000  12.3100000  26.0800000
  25.9650000  11.5700000  24.9010000  30.6610000  42.0580000   5.8460000
  31.2070000  41.6990000   5.1470000  30.1230000  42.7210000   5.4140000
  13.8110000  13.5550000  32.9130000  13.6780000  13.8550000  33.8120000
  13.2490000  14.1220000  32.3850000   7.7010000  43.1980000  40.6700000
   7.5340000  44.1080000  40.9150000   6.8370000  42.8420000  40.4640000
   6.1900000  22.9670000  32.5640000   6.9680000  22.6570000  32.1010000
   5.9990000  22.2790000  33.2010000  11.4900000  26.7980000  10.3330000
  11.3420000  27.4170000   9.6190000  12.2040000  27.1840000  10.8410000
  36.3130000  32.3400000  15.5490000  36.4100000  31.9290000  14.6900000
  37.1530000  32.7730000  15.7040000  34.7550000  22.9420000  37.1910000
  33.8260000  22.7620000  37.0460000  34.7700000  23.8130000  37.5880000
  42.0590000  17.3030000  14.1550000  41.6570000  17.5730000  14.9800000
  41.3260000  17.0020000  13.6170000   7.0920000  11.5490000  30.6980000
   6.6550000  12.0500000  30.0090000   7.3660000  12.2070000  31.3360000
   4.9860000  14.0150000   0.4050000   5.9070000  13.8690000   0.1900000
   4.5320000  13.9580000  -0.4350000  45.1130000  16.7610000  10.9500000
  44.7750000  17.6390000  11.1280000  45.8840000  16.9070000  10.4030000
  12.6350000  14.9170000  21.3460000  11.7100000  14.7120000  21.2100000
  13.0870000  14.0830000  21.2150000  44.1230000  22.2330000  26.7020000
  43.5550000  22.7020000  26.0910000  43.6960000  22.3350000  27.5530000
  25.5710000  30.9650000  16.1890000  25.6060000  31.5420000  15.4260000
  24.7990000  30.4190000  16.0410000  40.5270000  28.6120000  19.1950000
  40.3110000  29.4210000  19.6590000  39.7090000  28.1150000  19.1870000
  39.6630000  30.7900000  20.6250000  39.9940000  31.1040000  21.4670000
  38.7330000  31.0180000  20.6330000  16.5070000   8.5080000  15.7420000
  15.8640000   8.6530000  16.4360000  16.0100000   8.0910000  15.0380000
  30.4170000  31.2310000  40.0950000  29.5510000  30.8590000  39.9290000
  30.6440000  30.9260000  40.9740000   7.8270000   3.3990000  22.8930000
   7.1640000   4.0250000  23.1840000   8.1500000   2.9990000  23.7000000
   8.9470000  31.6240000   8.4840000   9.5090000  31.7740000   7.7240000
   8.8910000  32.4780000   8.9130000  15.6810000   4.3940000  14.8760000
  15.9950000   4.3590000  13.9730000  16.4660000   4.5600000  15.3970000
   8.8990000  23.0210000   6.2960000   9.7470000  23.1220000   6.7290000
   8.4030000  22.4410000   6.8740000  26.1000000  20.0550000   3.8820000
  26.1610000  19.6080000   4.7260000  26.6690000  19.5480000   3.3020000
  40.0600000   3.4200000   0.2070000  40.9980000   3.5620000   0.3300000
  39.6460000   4.1720000   0.6310000  39.5890000  13.6650000   9.3690000
  38.8710000  13.0820000   9.6170000  39.7410000  13.4780000   8.4430000
  40.4630000  23.2570000  27.7000000  40.7400000  23.9320000  28.3200000
  40.5320000  22.4390000  28.1910000  23.2210000  37.9980000   6.9850000
  24.1420000  37.8020000   7.1590000  23.2240000  38.4200000   6.1260000
  43.0700000  13.0100000  20.3710000  43.1090000  12.3170000  21.0310000
  43.9870000  13.2110000  20.1810000  40.9800000  33.7780000  38.4530000
  41.5540000  34.1070000  37.7610000  41.5210000  33.1570000  38.9390000
  23.4620000  41.6050000  11.1580000  22.7510000  41.1500000  11.6100000
  23.5040000  41.1890000  10.2970000  14.5260000  36.2230000  24.7080000
  14.0240000  37.0070000  24.9320000  14.0020000  35.4980000  25.0470000
  44.3540000  11.2200000  28.7850000  44.2250000  10.7750000  27.9470000
  45.2990000  11.3600000  28.8390000  38.3460000  -0.1330000  13.0600000
  38.2970000   0.7240000  12.6360000  37.8850000  -0.0160000  13.8910000
  19.3510000  33.1990000  14.5580000  19.3660000  33.0860000  15.5090000
  20.1150000  32.7140000  14.2470000  45.5360000   7.2490000   2.2820000
  44.9220000   7.9490000   2.0600000  45.1500000   6.8270000   3.0500000
  24.9900000  15.4040000  11.9200000  25.1120000  15.6680000  11.0080000
  24.1270000  15.7450000  12.1540000   8.3590000  35.8420000  21.2320000
   8.6790000  36.3430000  21.9830000   7.4160000  35.7690000  21.3780000
   0.5960000   3.4250000  40.6490000   0.8190000   3.8730000  41.4640000
   1.4370000   3.2900000  40.2120000  41.4590000  11.0990000  27.8130000
  42.3810000  11.2970000  27.6470000  41.1630000  11.8030000  28.3900000
  11.0630000  17.7650000  29.5700000  10.3390000  17.5870000  30.1700000
  10.7290000  17.5120000  28.7090000  16.5570000   4.6470000  31.5180000
  17.4920000   4.4470000  31.5590000  16.4780000   5.5070000  31.9330000
  22.4440000  42.1340000  25.7390000  23.2120000  42.6590000  25.9640000
  21.7310000  42.7700000  25.6680000  34.1040000   2.7540000  33.7910000
  34.3150000   3.1390000  34.6410000  33.3260000   2.2210000  33.9560000
  42.4480000  31.5250000   2.1670000  42.6040000  31.0890000   1.3300000
  41.9260000  30.8990000   2.6700000  44.0430000  15.2150000  24.1230000
  44.2150000  16.0360000  24.5840000  44.6710000  15.2100000  23.4010000
  32.0680000  38.8160000  37.6640000  32.4810000  39.2150000  38.4300000
  32.8000000  38.5120000  37.1280000  30.2270000  19.2210000  28.5320000
  30.6330000  18.3550000  28.4890000  30.7550000  19.7620000  27.9450000
  21.8000000   1.3940000  30.0340000  21.5870000   1.5410000  30.9550000
  21.2150000   0.6860000  29.7630000  25.9490000   8.1330000   0.6760000
  26.1320000   7.5000000  -0.0180000  26.5820000   7.9250000   1.3630000
  42.6490000  43.0040000   8.2940000  42.5720000  42.8700000   9.2380000
  43.1400000  43.8200000   8.2060000  39.0000000  18.4180000  18.6920000
  39.5460000  18.5720000  17.9220000  38.7230000  17.5050000  18.6110000
  27.8240000  29.2410000   0.2980000  27.1710000  29.8100000  -0.1100000
  27.3110000  28.6280000   0.8240000  32.8540000  13.5000000   7.5590000
  32.9170000  12.5560000   7.4150000  33.7380000  13.8280000   7.3900000
  14.1590000  20.6280000   3.8250000  14.4200000  19.8530000   3.3280000
  13.2380000  20.7590000   3.5980000   9.1140000  20.4140000   4.6160000
   8.6250000  19.7860000   5.1470000   8.8710000  21.2690000   4.9720000
  37.6320000   2.0320000  11.4430000  38.2020000   2.1760000  10.6870000
  37.5850000   2.8860000  11.8720000  18.1670000   9.3490000  34.0670000
  19.0050000   9.0290000  33.7320000  18.3110000  10.2830000  34.2180000
  11.5710000  13.8140000   7.4250000  11.4490000  14.3220000   8.2270000
  10.7200000  13.8510000   6.9870000   3.1550000  37.5320000  25.3840000
   2.7030000  38.3730000  25.3220000   3.7700000  37.5350000  24.6500000
  38.0550000  22.2970000  23.8030000  38.8370000  22.6950000  23.4210000
  38.3720000  21.8480000  24.5860000   7.3380000   5.0290000  35.0420000
   7.1280000   5.9510000  35.1850000   7.8560000   4.7800000  35.8070000
  19.4500000   8.9860000  41.4960000  20.0440000   8.8230000  40.7630000
  18.7200000   9.4690000  41.1090000  44.9290000  37.9870000  37.6210000
  45.6440000  37.3610000  37.7360000  44.4960000  38.0160000  38.4740000
  29.0570000  29.0800000  31.5260000  29.5330000  28.8410000  32.3210000
  28.1360000  28.9530000  31.7510000  11.9150000  28.8140000   5.3990000
  12.6420000  29.1600000   4.8820000  11.8050000  27.9160000   5.0870000
  42.6720000  16.5640000  28.9320000  42.1710000  17.1290000  28.3440000
  43.1820000  17.1710000  29.4690000  37.2590000   4.1960000  13.0830000
  37.5510000   5.0730000  13.3290000  36.3340000   4.3050000  12.8620000
  26.7680000  35.4280000  41.0810000  26.0360000  35.0340000  41.5540000
  27.3460000  34.6930000  40.8770000   2.0070000  19.1680000  39.9470000
   2.8860000  18.9930000  40.2830000   1.6860000  19.8930000  40.4830000
  42.3270000  43.1610000  33.7580000  43.1180000  43.6360000  33.5040000
  42.1930000  42.5250000  33.0550000  42.6070000  19.9890000  15.7530000
  43.5210000  19.9570000  16.0370000  42.2460000  20.7580000  16.1940000
  18.4840000  26.5470000  34.2840000  18.9950000  26.2880000  33.5170000
  18.2660000  27.4650000  34.1280000   2.2320000  22.9320000  10.3710000
   1.4410000  23.4280000  10.5800000   1.9190000  22.0440000  10.1950000
  37.2080000  38.7490000  42.1630000  37.7130000  38.9720000  42.9450000
  37.8620000  38.4430000  41.5350000  17.3430000   8.8180000  29.7550000
  17.0820000   9.3900000  29.0340000  18.0580000   9.2860000  30.1860000
   9.8360000  10.7670000  41.4740000  10.5660000  10.1490000  41.4530000
  10.1830000  11.5320000  41.9330000  43.6790000  32.5040000  29.8440000
  44.2470000  33.1890000  29.4920000  42.7990000  32.7530000  29.5600000
  35.5180000  13.3050000  18.1900000  35.4680000  14.1850000  17.8160000
  34.8760000  12.7970000  17.6950000  26.0450000   7.5690000  22.7880000
  26.8920000   7.4820000  22.3510000  26.0190000   6.8400000  23.4070000
  24.1110000   4.8420000   9.0060000  24.1670000   3.9830000   8.5880000
  23.4350000   4.7390000   9.6760000  22.6350000   5.7580000  20.8130000
  22.9190000   4.9830000  21.2980000  21.6800000   5.7440000  20.8770000
  32.9860000  17.7080000   6.7050000  33.2960000  16.8040000   6.7470000
  32.1060000  17.6430000   6.3330000  31.3110000  10.6660000  21.7500000
  30.3930000  10.7060000  21.4800000  31.7590000  11.2790000  21.1670000
  20.3780000  27.6820000  41.6310000  21.3270000  27.5630000  41.6690000
  20.0590000  26.9080000  41.1670000  10.4080000  12.7100000  36.3870000
  10.3980000  12.6790000  37.3440000  11.2120000  12.2510000  36.1410000
   5.3160000   0.6990000  30.4530000   4.4440000   1.0720000  30.5840000
   5.5280000   0.2870000  31.2910000  11.0800000  27.1830000  17.2460000
  11.2210000  27.1320000  16.3010000  11.1760000  28.1130000  17.4520000
  34.0690000  26.7940000  20.2340000  34.6270000  26.2740000  19.6560000
  34.3450000  27.6980000  20.0840000   6.3880000  19.7550000  22.2690000
   5.4310000  19.7820000  22.2480000   6.6450000  19.6560000  21.3520000
  16.9140000   4.1500000   2.9910000  16.5440000   4.4310000   2.1540000
  16.2000000   4.2640000   3.6190000  32.6930000   1.5780000  22.5330000
  33.1440000   2.3610000  22.2160000  32.1340000   1.3120000  21.8030000
  30.6640000  38.9970000  12.6120000  29.8570000  38.8940000  13.1170000
  31.1440000  38.1820000  12.7590000   2.3660000  36.4940000   0.3590000
   2.6460000  37.2410000   0.8880000   1.9150000  35.9190000   0.9770000
  39.1160000  20.7300000  15.2180000  38.4560000  20.5170000  14.5580000
  39.7940000  20.0640000  15.1030000  38.7580000  26.2580000  31.7830000
  39.0700000  25.3580000  31.8670000  39.4800000  26.7940000  32.1090000
  16.8320000  21.1630000   3.0100000  17.4390000  20.4560000   2.7930000
  16.0980000  20.7250000   3.4410000  16.4170000  16.7750000  27.2280000
  15.8630000  16.7820000  28.0090000  17.0770000  16.1060000  27.4090000
  34.9560000  29.7170000  12.0410000  34.4770000  29.7500000  11.2130000
  34.7080000  30.5220000  12.4940000  21.8510000  21.3150000  25.3240000
  22.3300000  21.4960000  26.1320000  20.9290000  21.4090000  25.5650000
  41.7850000  23.6120000  25.3930000  41.8010000  24.4810000  24.9920000
  41.3660000  23.7460000  26.2420000  37.2410000  38.0370000  11.4330000
  37.7100000  37.2530000  11.7190000  37.4320000  38.6890000  12.1070000
   1.4100000  40.4740000   6.6430000   1.2530000  40.7490000   5.7400000
   0.5700000  40.6060000   7.0830000  44.0810000   2.0290000  28.2400000
  43.9830000   1.0970000  28.4350000  43.3820000   2.4530000  28.7380000
  32.6620000   8.0260000  29.3100000  33.3520000   8.4270000  28.7810000
  33.0360000   7.9680000  30.1890000  31.2030000  37.8900000  28.2610000
  31.7720000  37.5020000  28.9260000  31.7890000  38.4300000  27.7310000
  17.7820000   0.8960000  16.7110000  18.7330000   0.9470000  16.8040000
  17.6400000   0.1910000  16.0790000  19.6230000  36.4930000   9.1010000
  19.5210000  36.7490000   8.1850000  20.5310000  36.7110000   9.3110000
  38.5970000   1.2370000   8.0070000  38.3000000   2.0620000   7.6230000
  39.3960000   1.4670000   8.4810000  29.4560000   6.9670000  11.2690000
  28.9570000   6.2490000  10.8800000  28.7960000   7.6250000  11.4880000
  35.5910000  20.8390000  11.5330000  35.8990000  20.4170000  12.3360000
  34.8260000  21.3440000  11.8070000   9.3060000   3.5260000  12.4510000
   8.9330000   4.3940000  12.2980000   8.7270000   3.1270000  13.1010000
  41.1490000  16.6060000   0.5180000  42.0390000  16.2640000   0.6000000
  40.6920000  16.2710000   1.2900000  40.0430000  15.0080000  17.3440000
  40.4490000  15.0250000  18.2110000  39.5750000  14.1740000  17.3150000
  14.7870000  31.8040000  41.7680000  14.2600000  31.0840000  42.1160000
  15.4050000  31.3810000  41.1720000  33.5770000  28.4640000  42.0250000
  32.9590000  28.0910000  42.6550000  33.0710000  28.5520000  41.2180000
  16.9930000  25.5920000   1.8180000  17.3630000  26.3030000   2.3410000
  17.3330000  24.7940000   2.2230000  31.0460000   0.6920000  38.7060000
  31.4400000  -0.1080000  38.3590000  30.8480000   0.4860000  39.6190000
  35.9100000  32.9500000  18.1900000  35.6560000  32.5780000  17.3450000
  35.3320000  33.7040000  18.3030000  10.3840000  23.8930000   4.0470000
   9.8390000  24.5830000   3.6670000   9.9030000  23.6090000   4.8240000
  42.7850000  40.4890000  26.1030000  42.8360000  40.9100000  26.9610000
  42.8580000  41.2100000  25.4780000  13.5450000  19.7780000  34.4180000
  12.8820000  19.4520000  33.8090000  13.0740000  19.9010000  35.2420000
  33.3290000  25.2880000   7.5950000  33.2510000  24.7530000   6.8050000
  33.3370000  24.6560000   8.3130000  22.1240000  23.1480000   4.4430000
  21.6500000  22.4060000   4.0670000  22.1120000  22.9850000   5.3870000
  10.0780000  12.3660000   4.6100000  10.2260000  11.6400000   4.0040000
   9.5610000  11.9850000   5.3200000  31.8520000  36.7010000  13.2280000
  31.3160000  36.1420000  13.7900000  32.7260000  36.3120000  13.2670000
  41.3140000   8.5050000  35.9150000  40.4730000   8.0480000  35.8800000
  41.9650000   7.8040000  35.9590000  34.0360000  25.7230000  23.2300000
  34.9420000  25.8990000  23.4820000  33.6080000  26.5790000  23.2600000
   3.1390000   3.6040000  38.9980000   3.5080000   3.9140000  38.1710000
   3.5070000   4.1900000  39.6590000  21.8970000  20.1870000  35.5820000
  21.8410000  19.4060000  35.0320000  21.0130000  20.5540000  35.5670000
  15.0420000  16.4940000   7.0670000  14.4220000  15.7940000   6.8620000
  14.7170000  17.2520000   6.5820000   7.6670000  28.6310000  40.3730000
   8.3790000  29.1420000  40.7570000   7.2240000  29.2420000  39.7850000
  18.5250000  30.1900000  15.9900000  18.6690000  30.2820000  15.0480000
  19.0530000  30.8850000  16.3830000  21.7940000  40.9380000   2.5670000
  21.4270000  41.7980000   2.7710000  22.6620000  41.1260000   2.2110000
  19.0960000   8.6410000   6.3550000  19.1700000   8.8570000   5.4250000
  18.1560000   8.6710000   6.5330000  44.1220000  10.9180000  13.2140000
  44.3000000  10.3100000  13.9320000  44.5320000  11.7390000  13.4870000
   7.7230000   9.2740000   0.3790000   7.1600000   9.8230000   0.9250000
   8.1550000   9.8900000  -0.2140000  36.9540000  20.3130000  31.7620000
  37.5870000  21.0170000  31.6190000  37.1050000  19.7050000  31.0370000
  29.6810000  14.1270000  21.2410000  29.4390000  13.7310000  22.0790000
  30.5460000  14.5060000  21.3970000  37.8960000   3.7370000   7.0150000
  37.9290000   4.5730000   6.5490000  36.9660000   3.5970000   7.1890000
  31.5680000   4.7730000  14.6860000  32.1450000   5.5320000  14.5960000
  30.7100000   5.1470000  14.8860000  26.5510000  24.5430000   2.9190000
  25.7530000  24.0140000   2.9350000  26.6330000  24.8780000   3.8110000
  26.0830000  25.5820000  40.9810000  26.2370000  26.0460000  41.8040000
  25.8190000  24.7020000  41.2480000  24.1830000  35.7160000  17.8410000
  23.7660000  36.4690000  17.4230000  24.7460000  35.3460000  17.1600000
   9.9900000  23.1230000   1.0650000  10.4840000  22.8520000   1.8380000
   9.0730000  23.0080000   1.3140000  26.5550000  23.2830000  10.2400000
  26.7820000  24.0540000   9.7210000  26.4310000  22.5870000   9.5950000
  37.6230000  35.0960000   3.8140000  38.3320000  35.5600000   3.3690000
  38.0540000  34.3660000   4.2570000  36.0070000  15.6610000  26.1040000
  36.3190000  16.5650000  26.1540000  36.8050000  15.1320000  26.1010000
   4.5240000  28.3400000  16.5670000   5.4510000  28.3860000  16.3300000
   4.5260000  28.1050000  17.4950000   6.8300000  29.6240000  37.3300000
   7.0440000  30.5220000  37.0790000   7.2500000  29.0820000  36.6610000
   7.1900000   2.1110000  41.7890000   6.3520000   2.0030000  42.2380000
   7.1150000   2.9550000  41.3430000  44.7440000  37.0630000  21.4450000
  44.8070000  36.1480000  21.7180000  44.8460000  37.0380000  20.4940000
  25.7240000   9.3580000   4.0180000  24.9740000   8.7830000   3.8630000
  26.4060000   8.7770000   4.3520000  22.5590000  21.7830000  31.3130000
  23.4610000  22.0850000  31.2030000  22.1580000  22.4320000  31.8920000
  38.1510000  24.1790000  18.6360000  37.7410000  23.3230000  18.7550000
  38.6560000  24.0920000  17.8270000  16.8560000  26.4660000   5.1620000
  16.8270000  25.5740000   4.8170000  15.9380000  26.7040000   5.2890000
  28.9970000  39.7870000  21.6700000  29.9140000  40.0440000  21.5680000
  28.8280000  39.2050000  20.9290000   7.8790000  35.7630000  33.6630000
   7.3790000  34.9690000  33.8550000   8.6350000  35.4540000  33.1640000
   4.3150000  35.3640000  41.2130000   3.5580000  35.7330000  41.6670000
   4.7300000  34.7970000  41.8630000  20.5480000  12.0290000  38.5690000
  20.1500000  12.1070000  39.4360000  21.4520000  12.3200000  38.6940000
  36.9020000   4.3620000  27.3580000  36.2320000   4.5900000  28.0030000
  37.5380000   5.0750000  27.4100000  35.1950000  13.5310000   3.3820000
  35.6900000  14.1110000   2.8040000  35.1870000  12.6890000   2.9280000
  15.7590000  29.8210000  22.9480000  14.8490000  29.5970000  23.1400000
  16.2730000  29.2020000  23.4680000  15.1720000  17.4930000  42.4760000
  15.8720000  17.1710000  41.9070000  14.3940000  17.0140000  42.1920000
   7.2390000  13.7000000  32.3910000   7.2610000  14.6530000  32.4820000
   7.3240000  13.3720000  33.2870000  33.1210000  14.5330000  35.4240000
  32.8580000  15.3660000  35.0320000  32.6850000  14.5210000  36.2760000
   5.7700000  23.8900000   3.5230000   5.0660000  23.3630000   3.9000000
   6.2450000  23.2840000   2.9540000   3.3130000  24.8010000  25.8980000
   2.9220000  24.8760000  26.7690000   2.7320000  24.2040000  25.4260000
  28.1820000  14.6920000  18.5440000  28.7580000  14.1970000  17.9610000
  28.5030000  14.4940000  19.4240000  37.8650000  22.7710000  31.3540000
  37.6920000  22.9640000  32.2760000  36.9980000  22.7330000  30.9510000
  21.5110000  32.7010000   1.6610000  22.1520000  32.0370000   1.9150000
  21.3000000  33.1540000   2.4780000   7.0670000  15.7980000  11.8840000
   7.2360000  16.5840000  12.4040000   6.1130000  15.7330000  11.8510000
   5.6570000   4.1100000   6.2040000   5.9630000   3.9640000   5.3090000
   5.6650000   3.2400000   6.6040000  26.9740000  23.5020000  26.3580000
  26.2000000  23.2310000  26.8510000  26.8270000  24.4300000  26.1740000
   0.9360000  43.4120000  23.6890000   1.7490000  43.2530000  23.2080000
   0.5330000  44.1550000  23.2400000  24.6220000   2.7580000   7.1030000
  25.5240000   2.9250000   6.8310000  24.0870000   3.2330000   6.4670000
  39.3330000  21.3510000   8.3040000  38.4240000  21.2950000   8.0090000
  39.4900000  22.2880000   8.4160000  11.9500000  16.2550000   8.7120000
  12.8630000  16.0740000   8.4860000  11.8710000  15.9850000   9.6270000
  27.3200000  26.4230000  35.9130000  26.8920000  25.7080000  35.4430000
  26.7330000  26.6170000  36.6430000  23.1170000  14.1990000  15.5920000
  23.6210000  13.4340000  15.8680000  23.7330000  14.7190000  15.0760000
  12.9290000  22.4680000  18.5240000  12.2950000  22.0390000  19.0980000
  13.4020000  23.0710000  19.0980000  42.7240000   4.1580000  38.0820000
  41.7950000   4.3400000  37.9400000  43.0120000   4.8390000  38.6900000
  31.0090000  24.4520000  12.4980000  30.4270000  23.7410000  12.2300000
  30.9430000  25.0950000  11.7930000  13.1020000  28.8380000  23.5540000
  12.2410000  29.1790000  23.7960000  13.2170000  28.0650000  24.1080000
   3.4290000  14.4020000  22.9830000   4.3100000  14.7460000  23.1290000
   3.3010000  14.4630000  22.0360000   6.3770000  11.5210000  40.5980000
   6.6900000  11.1480000  39.7740000   5.5140000  11.8770000  40.3870000
   5.2570000  22.4750000  38.8780000   5.4300000  23.4140000  38.9560000
   5.0940000  22.3390000  37.9450000  16.4210000   7.0320000   4.0700000
  15.6130000   6.7140000   3.6680000  16.8920000   6.2380000   4.3220000
   6.1110000   7.9120000   2.0960000   5.7090000   7.0810000   1.8410000
   6.8060000   8.0480000   1.4530000  27.6210000   8.0510000  26.4540000
  27.5230000   7.3290000  27.0740000  26.7410000   8.1880000  26.1040000
  11.4050000  13.9760000  13.0590000  12.1140000  14.3690000  13.5680000
  10.6740000  13.9140000  13.6740000  14.1250000   6.6420000  23.8260000
  13.5390000   6.2830000  24.4920000  14.8350000   6.0030000  23.7630000
  30.8060000  29.4040000   7.8250000  30.8920000  28.8430000   7.0550000
  30.2740000  28.8940000   8.4360000   3.5760000  38.3730000  14.6180000
   3.2710000  39.2800000  14.5850000   3.6600000  38.1150000  13.7000000
  40.2280000   1.6340000  38.5720000  39.6400000   0.9760000  38.2000000
  40.7330000   1.9550000  37.8250000  10.6360000  30.1920000  23.4440000
  10.7520000  31.0990000  23.7240000   9.9820000  29.8360000  24.0450000
  23.4490000  41.7920000  31.8790000  22.6620000  41.9020000  32.4120000
  23.6880000  40.8720000  31.9910000  14.2800000  28.7170000  31.9570000
  13.3610000  28.9680000  31.8650000  14.3320000  28.3150000  32.8250000
   4.5650000  43.3510000  40.2560000   4.2460000  44.0140000  39.6440000
   4.0770000  42.5600000  40.0280000  10.5460000  33.6590000  39.3020000
  11.2130000  34.3440000  39.3590000  11.0330000  32.8420000  39.4110000
   2.5940000   0.9780000  42.5150000   2.6560000   0.5900000  41.6420000
   2.4030000   1.9020000  42.3530000  12.3470000  11.0150000  35.9260000
  13.0070000  10.9130000  35.2410000  11.7040000  10.3300000  35.7420000
  15.4240000  22.6470000  31.9110000  14.8200000  23.3800000  32.0350000
  14.8610000  21.9070000  31.6860000   4.6710000  33.3330000   1.0550000
   5.1060000  32.4980000   0.8790000   5.0030000  33.5990000   1.9130000
  13.2520000  20.4010000   8.2880000  12.3270000  20.6290000   8.1910000
  13.4590000  19.9020000   7.4980000  25.4560000  39.0290000  14.7940000
  24.5350000  39.2070000  14.9840000  25.4530000  38.1640000  14.3840000
  26.5890000  18.0240000  19.3330000  26.8710000  17.3330000  19.9310000
  26.2940000  18.7320000  19.9060000  28.3410000  29.3710000  19.9680000
  29.1460000  28.8750000  19.8210000  28.0790000  29.1440000  20.8600000
   8.5140000   6.0900000  31.0740000   9.2630000   6.4570000  31.5440000
   8.5770000   5.1460000  31.2230000  25.8100000  22.8520000  39.1150000
  25.6030000  22.8990000  40.0480000  26.6760000  22.4460000  39.0820000
  13.5890000  24.5490000  23.3780000  13.2670000  24.7370000  22.4960000
  13.2210000  23.6910000  23.5890000  32.4960000  22.4120000  39.3020000
  32.3170000  23.3140000  39.5660000  31.6460000  21.9740000  39.3530000
  35.6420000  28.6730000  17.0390000  36.4850000  28.8800000  17.4440000
  35.0280000  28.6290000  17.7720000  30.5770000  26.0660000  29.3120000
  29.9840000  25.6150000  28.7120000  31.0960000  26.6410000  28.7500000
  40.4650000  18.9230000  40.8850000  40.2350000  19.6640000  41.4460000
  40.6880000  18.2200000  41.4960000  34.9070000  10.3110000  34.4930000
  35.5870000  10.8430000  34.9060000  35.1910000   9.4080000  34.6330000
   8.1160000  16.5230000  40.7530000   8.6250000  16.9240000  40.0490000
   7.7640000  15.7210000  40.3680000  11.5900000   6.2940000   6.1400000
  11.5120000   6.7540000   5.3050000  11.1950000   5.4370000   5.9790000
  17.5070000  24.6530000  35.9150000  16.6250000  24.5820000  35.5500000
  17.9150000  25.3630000  35.4200000   0.3250000  23.6840000  36.1570000
  -0.0560000  23.7520000  35.2820000   0.7130000  22.8100000  36.1830000
  44.1460000   1.3170000  39.6870000  43.9390000   2.0590000  39.1190000
  44.7870000   1.6620000  40.3090000  17.1110000   4.0060000  39.6460000
  16.9290000   3.2560000  39.0800000  16.9570000   4.7690000  39.0890000
   0.1800000   6.6240000   6.2640000   0.8410000   7.3160000   6.2620000
  -0.4640000   6.9060000   5.6150000   5.4310000  16.9680000  20.7030000
   4.7150000  17.4330000  21.1350000   5.8970000  17.6460000  20.2150000
  40.0070000  23.9320000   3.1750000  39.5020000  23.7890000   2.3740000
  39.9000000  23.1220000   3.6740000  37.9860000   4.7540000  39.7410000
  37.1440000   5.1750000  39.5690000  37.7570000   3.9030000  40.1140000
  27.5210000   9.0770000  29.3350000  27.8530000   8.5280000  28.6240000
  28.3070000   9.4180000  29.7610000  10.5040000  28.4550000  33.6380000
  10.8520000  27.5740000  33.7740000   9.9680000  28.3810000  32.8480000
  16.7160000   2.6300000  24.8540000  16.2090000   2.8190000  25.6440000
  16.1200000   2.1220000  24.3030000  17.1970000  11.7510000   8.1940000
  16.8530000  12.2050000   7.4250000  16.6910000  10.9400000   8.2400000
  37.3460000  25.8040000   8.2440000  36.6760000  26.4870000   8.2180000
  37.1420000  25.2400000   7.4980000  32.9500000   5.9100000   9.0810000
  33.5180000   6.6040000   8.7460000  32.3590000   6.3570000   9.6870000
  22.1140000   9.7200000  13.3850000  22.4940000  10.5840000  13.5460000
  21.5740000   9.8390000  12.6030000  26.7600000   1.5530000  30.8740000
  25.8920000   1.1540000  30.9340000  26.9860000   1.7730000  31.7780000
  26.0100000   5.3510000   3.9100000  25.1980000   4.8740000   4.0800000
  26.1990000   5.1810000   2.9880000  42.1430000  12.7710000   1.7630000
  42.5490000  12.7630000   0.8960000  42.5390000  13.5210000   2.2060000
   8.1530000  12.8120000  35.0410000   8.0140000  11.8690000  35.1300000
   8.9630000  12.9810000  35.5230000  12.1430000  21.7010000  14.0650000
  12.6490000  21.4430000  14.8350000  11.7480000  20.8860000  13.7540000
  10.1780000  21.0910000  23.1330000  10.7510000  21.3860000  23.8400000
   9.3120000  21.4210000  23.3740000  20.4020000  35.6700000  37.9810000
  21.2550000  35.4160000  37.6280000  20.5350000  36.5580000  38.3110000
  17.1660000  36.7970000  27.4470000  17.1180000  36.9170000  26.4990000
  17.9100000  36.2080000  27.5760000  17.9510000  36.2340000  22.4630000
  17.1360000  36.1280000  21.9730000  18.4860000  35.4850000  22.2020000
  33.5580000  38.4310000  26.6930000  33.8340000  38.9730000  25.9540000
  33.3030000  37.5980000  26.2970000   1.1040000   6.6850000  15.4960000
   1.6590000   7.1260000  14.8520000   1.2040000   7.2040000  16.2940000
  26.2500000  11.9640000  13.1430000  25.6000000  11.7890000  13.8230000
  25.7330000  12.1200000  12.3520000   7.6190000  17.1940000  33.1530000
   7.2850000  17.1900000  34.0500000   7.1140000  17.8780000  32.7130000
  37.8580000  39.9730000  37.1210000  37.7410000  40.6500000  36.4540000
  37.7680000  39.1480000  36.6440000   2.5030000  24.4440000   4.9950000
   3.1720000  23.7660000   4.9020000   1.7730000  24.0020000   5.4280000
  28.5920000   3.6590000  34.2440000  28.3090000   4.1700000  33.4860000
  27.9500000   2.9510000  34.3090000   1.2950000  30.4030000  33.2520000
   1.0590000  31.2640000  32.9090000   0.9800000  30.4100000  34.1560000
   3.3430000  17.1000000   2.6540000   3.9290000  17.3680000   3.3610000
   3.7520000  16.3150000   2.2880000  28.1840000  14.3010000   1.7750000
  29.0260000  14.5960000   1.4300000  28.3910000  13.5000000   2.2580000
  31.3720000  31.8340000  13.7090000  30.8750000  31.4790000  14.4460000
  32.1620000  32.1990000  14.1060000   2.4230000  25.1860000  17.3810000
   2.8830000  24.7850000  18.1190000   2.2100000  26.0690000  17.6830000
  20.6170000  27.4630000  12.3870000  20.9270000  27.0790000  11.5670000
  19.9640000  26.8420000  12.7110000  44.8680000  18.6390000  -0.0230000
  44.4190000  19.3250000  -0.5160000  44.8670000  18.9540000   0.8810000
  24.8960000  22.2750000  19.5420000  25.4470000  22.9130000  19.0880000
  24.2110000  22.8010000  19.9550000  22.6210000  29.4190000  12.8100000
  22.7290000  29.6010000  11.8770000  22.3660000  28.4970000  12.8460000
  41.4290000  13.2150000  15.9920000  41.3270000  12.5980000  16.7170000
  40.9770000  14.0060000  16.2860000  16.8900000  14.2140000  19.8730000
  17.2170000  14.6110000  19.0650000  17.6000000  14.3350000  20.5030000
  15.6870000  17.3630000  19.4370000  16.0480000  17.3550000  18.5510000
  16.0220000  18.1710000  19.8250000   3.8650000  14.5140000  15.9910000
   4.3820000  15.2160000  15.5950000   3.1910000  14.9690000  16.4960000
  15.9210000  42.0480000  37.7950000  15.4540000  41.8350000  38.6020000
  16.5670000  42.7040000  38.0570000  22.6950000  18.0770000  18.5210000
  23.5200000  17.5930000  18.5000000  22.1250000  17.6050000  17.9140000
   1.9270000  15.8670000  37.1440000   1.2260000  15.8720000  36.4920000
   1.4820000  15.6820000  37.9710000  42.4860000  29.8080000  42.3190000
  43.1810000  29.1800000  42.1270000  41.7020000  29.2710000  42.4350000
  28.2230000  14.7010000  38.6290000  28.7060000  15.3870000  38.1690000
  28.8720000  14.0160000  38.7890000  34.9920000  16.9240000  37.9390000
  34.0400000  16.9780000  38.0220000  35.3240000  17.5960000  38.5340000
  43.7310000  25.3370000   6.9420000  43.8370000  26.0190000   7.6060000
  43.8940000  25.7850000   6.1110000  24.5190000  41.1830000  35.2550000
  24.3550000  41.1790000  36.1980000  25.2070000  41.8380000  35.1340000
  23.7570000  29.3860000  29.7550000  23.4870000  28.7180000  29.1250000
  23.6650000  28.9630000  30.6080000   2.1080000  42.6270000  31.1890000
   2.9870000  42.2970000  31.3780000   1.5240000  41.9120000  31.4410000
   3.2510000  31.4380000   3.8960000   2.5870000  30.7550000   3.9900000
   2.8650000  32.2060000   4.3160000   5.9310000  15.2930000  23.1120000
   5.8760000  15.8690000  22.3490000   5.8690000  15.8830000  23.8630000
  38.5730000   7.6540000  36.5530000  38.5510000   8.6110000  36.5530000
  38.1210000   7.4040000  35.7470000  24.8080000  35.4610000   0.6460000
  24.7160000  35.5700000   1.5930000  23.9160000  35.5400000   0.3080000
   7.4530000  11.1870000   3.7590000   7.1360000  11.9780000   4.1950000
   6.8710000  11.0780000   3.0070000  18.2140000  35.3680000  39.6330000
  18.5880000  35.8680000  38.9070000  17.8810000  36.0340000  40.2350000
  30.2070000  19.2500000  38.8970000  30.4960000  19.3180000  39.8070000
  29.2690000  19.4370000  38.9290000  22.5660000  43.5370000  21.8910000
  23.0350000  43.9550000  22.6130000  23.1640000  43.6020000  21.1470000
  31.9520000  25.1880000  20.9210000  32.6020000  25.6490000  20.3910000
  32.2660000  25.2830000  21.8210000  19.0910000  17.5550000  22.8330000
  19.6220000  18.1590000  22.3120000  18.3430000  18.0800000  23.1190000
   5.7940000  11.0840000   1.5040000   5.6430000  11.4150000   0.6190000
   4.9820000  10.6310000   1.7320000  27.2260000  38.3610000  41.3600000
  27.1920000  37.4330000  41.1260000  28.0830000  38.6540000  41.0520000
  26.5840000  12.0790000  21.2850000  25.8540000  11.4980000  21.4950000
  26.3680000  12.9030000  21.7210000  20.6410000  20.8900000   4.0720000
  20.0020000  20.2950000   3.6800000  20.9300000  20.4420000   4.8660000
  17.0720000  30.6350000  40.1460000  17.6320000  30.9350000  40.8620000
  17.6600000  30.1480000  39.5700000  35.5890000   7.8740000  34.6590000
  36.4790000   8.1410000  34.4300000  35.3470000   7.2410000  33.9830000
  21.0710000  42.0910000  36.7030000  21.4710000  42.8840000  36.3450000
  20.7890000  42.3420000  37.5830000  44.0520000  32.3640000  14.4060000
  44.9900000  32.2460000  14.2570000  43.7730000  32.9640000  13.7140000
  24.1860000  43.2730000  29.2580000  23.7440000  42.8180000  29.9750000
  23.6800000  44.0760000  29.1360000  41.1090000  29.0270000  38.3050000
  40.6680000  29.2940000  37.4990000  41.8910000  28.5620000  38.0080000
  21.8830000   6.6750000  30.6990000  21.8970000   6.2210000  31.5410000
  22.6260000   7.2780000  30.7400000  34.2530000  16.6830000  23.4280000
  34.3860000  17.5760000  23.7450000  33.3240000  16.6450000  23.2000000
  36.4360000  11.9900000  36.2760000  36.5610000  12.9370000  36.2160000
  36.0890000  11.8490000  37.1570000   2.8020000  42.9880000   8.6810000
   1.9160000  42.8770000   8.3360000   2.6730000  43.1950000   9.6070000
  36.9970000  18.1120000  27.1390000  37.6390000  17.4290000  27.3330000
  36.4220000  18.1250000  27.9040000  28.0830000   1.8570000  41.9600000
  28.9280000   1.7720000  41.5180000  27.4750000   2.1150000  41.2670000
  31.0370000  19.5070000  24.3780000  31.6310000  19.8970000  23.7370000
  31.1300000  20.0570000  25.1570000  23.9420000  14.6380000  34.9150000
  24.8440000  14.3350000  35.0240000  23.9600000  15.1600000  34.1140000
   5.7960000  43.1510000   8.2080000   4.9530000  42.7990000   8.4950000
   5.9740000  43.8700000   8.8150000  17.0690000  19.4290000  31.5680000
  16.7840000  18.9360000  32.3380000  17.9410000  19.0870000  31.3740000
  39.0730000  42.1530000   9.1430000  39.5000000  42.1490000   8.2860000
  38.9720000  43.0810000   9.3560000   9.2780000  30.8660000  41.7370000
   9.0660000  31.3370000  40.9310000  10.1340000  31.2070000  41.9960000
  44.0520000  29.3310000  24.8460000  43.7880000  29.7120000  25.6840000
  43.8430000  30.0050000  24.2000000   5.4460000  32.5070000  30.8630000
   6.2600000  32.0820000  30.5940000   5.3210000  33.2100000  30.2260000
  39.4590000  16.2140000  10.2460000  39.4610000  15.3570000   9.8190000
  39.0700000  16.0520000  11.1050000  24.6740000  20.2680000  12.9250000
  24.1400000  20.3810000  13.7110000  25.5130000  20.6730000  13.1450000
   8.4590000  11.3310000   6.8360000   8.7370000  10.4160000   6.7970000
   8.0000000  11.4060000   7.6730000  36.5220000  31.4110000  29.8910000
  36.8450000  30.5530000  30.1680000  37.3140000  31.9190000  29.7140000
  28.0170000  33.8550000  33.8970000  28.0070000  33.6630000  32.9600000
  28.0120000  32.9950000  34.3180000  39.3260000  22.8760000  40.3560000
  39.8130000  22.2660000  40.9110000  38.4080000  22.6470000  40.4990000
   2.8610000  25.4230000  40.0840000   2.7710000  25.2170000  41.0140000
   3.7120000  25.8560000  40.0150000  18.2480000  39.0040000   2.9850000
  17.8380000  38.8250000   3.8310000  18.4010000  38.1390000   2.6050000
  24.9610000  16.4950000  17.2880000  25.5890000  16.6840000  17.9850000
  24.9750000  15.5410000  17.2040000  26.7710000  15.9480000   3.6160000
  27.4680000  15.3460000   3.3560000  26.0340000  15.3790000   3.8410000
  36.9070000   7.8520000   4.4610000  37.3090000   8.7180000   4.5330000
  37.1220000   7.5610000   3.5750000  33.9700000  25.8500000  37.7590000
  33.3800000  26.6000000  37.6760000  34.1120000  25.7610000  38.7020000
  35.0420000   0.5620000  30.9390000  34.0920000   0.4610000  30.9800000
  35.3830000  -0.3260000  31.0450000  28.6350000  22.6690000  21.0820000
  28.0300000  22.7720000  21.8180000  28.5750000  21.7420000  20.8510000
  43.7820000  38.4630000   1.9000000  44.6420000  38.8440000   1.7250000
  43.2050000  38.8670000   1.2510000  38.9290000   5.9630000   0.6920000
  38.3140000   5.8100000   1.4090000  38.3730000   6.1370000  -0.0680000
   3.7180000  42.1470000  34.9500000   2.9680000  42.4510000  35.4600000
   3.4880000  41.2530000  34.6960000  31.6750000  25.9130000  40.0230000
  30.9350000  26.1660000  40.5750000  31.4880000  26.3120000  39.1730000
  39.7270000  11.9360000   2.6340000  39.0320000  11.7570000   2.0000000
  40.4810000  12.1840000   2.0990000  35.4160000  39.3050000  31.1170000
  35.1090000  40.0210000  31.6720000  35.6780000  38.6200000  31.7320000
  35.2010000  32.2070000   5.5160000  36.0500000  32.0160000   5.1180000
  35.3410000  33.0210000   6.0000000   4.4640000  12.7350000  18.1310000
   4.2230000  13.2770000  17.3800000   5.0620000  13.2830000  18.6400000
  19.1600000  23.2750000   2.9560000  18.8470000  23.4150000   3.8500000
  19.6150000  22.4330000   2.9920000  36.9520000  26.0460000  10.7510000
  37.2890000  25.9480000   9.8610000  36.4320000  25.2570000  10.8990000
  37.5320000  28.8760000  35.1210000  36.8210000  29.3210000  35.5820000
  37.3680000  27.9450000  35.2710000  11.3280000   7.7140000  19.2910000
  10.6610000   7.0350000  19.1870000  11.9850000   7.3180000  19.8640000
  37.1670000  39.8930000  13.6360000  36.8830000  40.2830000  14.4620000
  37.9590000  39.4050000  13.8610000  29.1210000  23.0980000  28.5080000
  29.3870000  23.2830000  27.6080000  28.4640000  23.7660000  28.7050000
  13.1930000  33.4070000  18.3040000  12.5340000  33.7500000  18.9080000
  13.4090000  32.5420000  18.6510000  26.7900000   1.0230000  25.5600000
  27.3560000   0.7360000  24.8430000  27.0590000   1.9250000  25.7320000
  28.2370000  43.6100000  19.5380000  28.5270000  42.7200000  19.7380000
  27.7970000  43.5340000  18.6910000   6.7010000  11.3600000   8.9750000
   7.1110000  10.5740000   9.3360000   6.1400000  11.6830000   9.6800000
  42.2290000  39.8990000  42.4180000  41.3040000  40.1360000  42.3640000
  42.6720000  40.5250000  41.8460000   4.8130000   5.2780000  30.7460000
   5.5990000   4.9160000  31.1550000   4.1350000   5.1960000  31.4160000
  33.2540000  20.9480000  22.2020000  32.9410000  20.7200000  21.3270000
  33.6380000  21.8190000  22.1000000  13.7080000  14.3540000  35.6420000
  13.7490000  13.7680000  36.3980000  14.4080000  14.9890000  35.7940000
  16.0300000  18.3970000  34.0640000  15.7000000  17.9640000  33.2770000
  15.4240000  19.1230000  34.2110000  21.8880000   3.6380000  10.5420000
  21.2950000   3.0020000  10.1420000  22.2700000   3.1730000  11.2870000
  21.1910000   3.8020000  28.5950000  21.4410000   3.0420000  29.1210000
  20.6300000   4.3180000  29.1740000  44.4830000  10.4260000  38.1930000
  44.6340000   9.5710000  37.7900000  43.5320000  10.5280000  38.1900000
  27.5440000  40.3550000   8.7450000  27.7710000  39.7670000   8.0250000
  28.3120000  40.3400000   9.3170000  29.0170000  34.1170000   1.6270000
  29.1770000  33.3370000   2.1580000  29.3440000  34.8410000   2.1610000
  44.8390000  19.6010000   2.4250000  44.7060000  20.1620000   3.1890000
  45.7790000  19.4210000   2.4220000  26.5040000  23.1830000  14.7190000
  25.8920000  23.9170000  14.7870000  26.0720000  22.4680000  15.1860000
   6.0370000  29.1990000  23.8880000   5.8070000  30.0580000  24.2440000
   6.1260000  28.6370000  24.6580000  37.2340000  34.2030000  40.1320000
  36.8820000  34.3280000  41.0130000  38.0810000  34.6490000  40.1470000
  17.8580000  16.3120000  12.9170000  18.4660000  15.5780000  13.0090000
  17.2160000  16.1800000  13.6140000  37.2870000   9.8550000  30.4170000
  37.0070000   8.9490000  30.2910000  37.8350000   9.8300000  31.2020000
  13.1630000   1.8180000  25.9650000  13.5480000   2.4660000  26.5550000
  12.9020000   2.3220000  25.1940000  15.3040000   3.4070000  27.0960000
  15.4820000   3.0350000  27.9600000  14.8010000   4.2010000  27.2760000
   5.4150000  18.6250000  11.4530000   4.8990000  19.3870000  11.1880000
   5.8310000  18.3250000  10.6440000  27.5230000   2.0910000   4.4310000
  27.6220000   3.0390000   4.3480000  27.6100000   1.9230000   5.3690000
  36.2710000  11.5390000   7.4310000  35.9210000  12.1000000   6.7390000
  36.8010000  10.8900000   6.9680000  17.7700000  24.5760000  38.3480000
  17.6760000  24.7300000  37.4080000  17.4530000  23.6830000  38.4780000
  25.7560000  14.6880000  14.4850000  26.0900000  13.8180000  14.7050000
  25.5110000  14.6240000  13.5620000   4.5830000  32.6870000  12.2480000
   5.4070000  32.2590000  12.4840000   4.7300000  33.6130000  12.4430000
  33.1950000  18.0490000   1.5040000  33.4630000  17.2850000   2.0130000
  32.2540000  18.1250000   1.6640000  18.7060000  26.7200000  22.5690000
  18.7660000  26.8840000  21.6280000  18.2110000  27.4650000  22.9110000
  33.1670000  13.8180000  42.3820000  33.9260000  14.3160000  42.0790000
  33.2960000  12.9420000  42.0210000  13.3540000  37.4760000  21.6960000
  12.7910000  37.6300000  22.4550000  12.7510000  37.2170000  20.9990000
   2.2030000  19.7030000   1.5090000   1.9900000  20.0320000   0.6350000
   3.0760000  19.3210000   1.4140000  13.7180000   1.3610000  38.4060000
  14.0500000   0.6450000  38.9480000  14.5040000   1.7840000  38.0600000
  14.6950000  36.2760000   1.0090000  14.5550000  35.6980000   0.2580000
  15.6130000  36.1440000   1.2450000   4.1480000  22.3340000  35.7880000
   4.8560000  22.0150000  35.2280000   4.1980000  23.2870000  35.7180000
  11.6460000  37.8100000  11.5830000  12.5680000  37.9950000  11.4030000
  11.2740000  37.5970000  10.7270000  33.4720000  42.5480000   4.8280000
  34.1500000  41.8990000   5.0160000  33.5850000  43.2150000   5.5050000
  39.9040000  35.0590000   7.5130000  39.8020000  35.2120000   6.5740000
  39.1040000  34.6000000   7.7690000   5.2170000   0.2750000  37.0710000
   5.0990000   0.5320000  36.1560000   5.5400000  -0.6250000  37.0270000
   5.7670000  34.7220000   3.1990000   6.6570000  34.3710000   3.2170000
   5.8560000  35.5790000   2.7820000   1.1320000  43.2150000  14.6610000
   1.7140000  43.9710000  14.5880000   0.4330000  43.3880000  14.0300000
  27.2030000   4.7850000  21.2780000  28.1120000   4.4910000  21.3430000
  27.2660000   5.7330000  21.1600000  13.6700000   3.2820000  42.1320000
  13.5120000   3.0020000  41.2310000  14.3840000   2.7220000  42.4360000
   1.4380000   9.1750000   6.6420000   1.3290000   8.9410000   7.5640000
   0.6370000   9.6490000   6.4190000  29.7060000  22.9510000  33.3200000
  30.3240000  22.4560000  33.8580000  30.2130000  23.2090000  32.5500000
   2.0640000  20.8240000  22.7360000   1.7310000  21.6590000  22.4050000
   2.6600000  21.0690000  23.4430000  18.1660000  28.0370000  10.9600000
  18.1540000  27.6990000  10.0650000  18.3950000  27.2800000  11.5000000
  42.5370000  24.6270000  19.5500000  41.9420000  24.9480000  18.8730000
  42.3440000  25.1680000  20.3150000  31.9620000  35.2390000  42.3770000
  31.6360000  35.9300000  41.8000000  32.4270000  34.6390000  41.7930000
  34.2630000   7.3220000  24.8690000  33.5890000   6.9800000  25.4560000
  33.9030000   8.1470000  24.5440000   1.1180000  33.6890000  10.6510000
   0.1960000  33.4350000  10.6810000   1.2470000  34.2160000  11.4400000
  19.6790000  20.9020000  17.5720000  18.9460000  20.7350000  16.9800000
  19.8550000  20.0550000  17.9810000  30.1820000  40.3730000  18.8550000
  29.5920000  40.7000000  18.1760000  29.7970000  39.5390000  19.1250000
  34.7940000  11.1690000  30.0030000  35.4920000  10.9220000  30.6090000
  35.2400000  11.6540000  29.3090000   3.7390000  28.4540000  39.9710000
   3.5930000  28.0580000  40.8300000   3.0890000  29.1540000  39.9160000
   1.8450000  20.8160000  14.3370000   2.6480000  20.3590000  14.0840000
   2.0350000  21.1690000  15.2060000  33.2550000  23.7700000  10.1710000
  33.6270000  23.1130000  10.7590000  32.4110000  23.4050000   9.9070000
  19.1600000  35.0870000  27.8860000  19.9520000  35.1060000  28.4220000
  18.7050000  34.2900000  28.1580000  17.4880000  31.3340000  36.2830000
  17.5050000  31.8910000  35.5050000  17.3780000  31.9440000  37.0120000
  31.9650000  40.0950000   3.2880000  32.2330000  39.3510000   2.7480000
  32.6870000  40.7190000   3.2120000  16.6210000  21.7430000  26.0550000
  16.5130000  21.5670000  26.9890000  16.0290000  21.1260000  25.6250000
  42.0100000  38.0470000  22.6750000  42.2180000  38.8310000  23.1830000
  42.1770000  38.2990000  21.7670000  23.4010000  28.6520000  -0.2130000
  23.3150000  29.5890000  -0.0400000  23.1710000  28.2330000   0.6160000
  44.0650000  14.7630000   2.8550000  44.1180000  15.1670000   1.9890000
  43.5970000  15.4040000   3.3900000  11.6070000  39.7960000   5.1560000
  12.5110000  39.6190000   4.8990000  11.1550000  38.9610000   5.0360000
  38.6090000   6.4670000  27.4260000  38.2670000   6.9890000  26.7010000
  39.3930000   6.9360000  27.7120000  24.9760000  25.4850000  14.9500000
  25.4830000  25.9810000  15.5920000  24.0640000  25.6990000  15.1470000
  41.7800000  41.5060000  28.4170000  40.8420000  41.3200000  28.4540000
  41.8330000  42.4620000  28.3910000   1.1380000  10.4030000  25.2310000
   0.3330000  10.0970000  24.8130000   1.5730000  10.9270000  24.5590000
  11.0410000  21.5340000  25.8200000  10.6890000  22.1890000  26.4220000
  11.1650000  20.7540000  26.3600000  27.0520000  16.3080000  21.3480000
  26.8330000  16.4780000  22.2650000  27.0420000  15.3540000  21.2720000
   5.9500000  34.0430000  34.4340000   6.0420000  33.7560000  35.3430000
   5.5640000  33.2930000  33.9830000  33.0000000  30.5170000  32.5860000
  32.6640000  30.0760000  31.8050000  32.3200000  31.1510000  32.8140000
   1.9650000  28.2260000  22.8370000   2.4270000  28.2630000  23.6750000
   1.4350000  29.0230000  22.8210000  23.6500000  32.5350000  18.2050000
  23.7340000  33.4640000  17.9940000  24.5460000  32.2440000  18.3720000
  30.2630000  42.9040000  28.0130000  30.8370000  42.1660000  28.2190000
  29.3780000  42.5570000  28.1260000  32.3190000  14.2940000  24.0410000
  32.4690000  14.5210000  23.1230000  31.4880000  14.7160000  24.2600000
  29.7370000   4.6120000   1.8610000  29.5200000   5.2010000   2.5840000
  30.3210000   3.9610000   2.2490000  29.0790000  39.6090000  34.1160000
  29.7280000  38.9050000  34.1200000  29.5950000  40.4110000  34.1880000
   5.5130000  30.6980000   0.4020000   5.7740000  30.7280000   1.3220000
   5.3910000  29.7660000   0.2190000  36.8320000  16.1730000  18.5800000
  36.1650000  16.5190000  19.1730000  37.4120000  15.6620000  19.1440000
  11.4870000  41.3070000  19.8770000  12.3360000  41.7410000  19.9520000
  11.6210000  40.6320000  19.2120000  11.3340000  10.9120000  30.8020000
  10.9300000  11.1070000  31.6470000  12.0950000  10.3720000  31.0190000
  13.1990000  24.1930000  34.0850000  13.2060000  24.9830000  34.6250000
  13.1550000  23.4730000  34.7150000  26.3800000   8.7810000  35.3990000
  26.4910000   8.6650000  36.3430000  26.9800000   8.1470000  35.0080000
  37.5490000  33.8830000  11.0820000  36.9210000  34.4740000  10.6670000
  38.0920000  33.5660000  10.3610000  40.9410000  42.9810000   3.3760000
  41.3390000  42.1660000   3.6820000  41.3530000  43.6620000   3.9080000
  45.2731087  43.7573708  42.3050152  90.0000000  90.0000000  90.0000000