%VERSION  VERSION_STAMP = V0001.000  DATE = 09/10/20  10:42:10                  
%FLAG TITLE                                                                     
%FORMAT(20a4)                                                                   
default_name                                                                    
%FLAG POINTERS                                                                  
%FORMAT(10I8)                                                                   
    8348      15    8269      80    2875     110     306     320       0       0
   11696    2748      80     110     320      42      87     103      27       1
       0       0       0       0       0       0       0       0      24       0
       0
%FLAG ATOM_NAME                                                                 
%FORMAT(20a4)                                                                   
N   H1  H2  H3  CA  HA2 HA3 C   O   N   H   CA  HA  CB  HB2 HB3 CG  CD1 HD1 CE1 
HE1 CZ  OH  HH  CE2 HE2 CD2 HD2 C   O   N   H   CA  HA  CB  HB2 HB3 CG  OD1 OD2 
C   O   N   CD  HD2 HD3 CG  HG2 HG3 CB  HB2 HB3 CA  HA  C   O   N   H   CA  HA  
CB  HB2 HB3 CG  HG2 HG3 CD  OE1 OE2 C   O   N   H   CA  HA  CB  HB  CG2 HG21HG22
HG23OG1 HG1 C   O   N   H   CA  HA2 HA3 C   O   N   H   CA  HA  CB  HB  CG2 HG21
HG22HG23OG1 HG1 C   O   N   H   CA  HA  CB  HB2 HB3 CG  CD1 HD1 NE1 HE1 CE2 CZ2 
HZ2 CH2 HH2 CZ3 HZ3 CE3 HE3 CD2 C   O   N   H   CA  HA2 HA3 C   O   OXT Na+ Na+ 
O   H1  H2  O   H1  H2  O   H1  H2  O   H1  H2  O   H1  H2  O   H1  H2  O   H1  
H2  O   H1  H2  O   H1  H2  O   H1  H2  O   H1  H2  O   H1  H2  O   H1  H2  O   
H1  H2  O   H1  H2  O   H1  H2  O   H1  H2  O   H1  H2  O   H1  H2  O   H1  H2  
O   H1  H2  O   H1  H2  O   H1  H2  O   H1  H2  O   H1  H2  O   H1  H2  O   H1  
H2  O   H1  H2  O   H1  H2  O   H1  H2  O   H1  H2  O   H1  H2  O   H1  H2  O   
H1  H2  O   H1  H2  O   H1  H2  O   H1  H2  O   H1  H2  O   H1  H2  O   H1  H2  
O   H1  H2  O   H1  H2  O   H1  H2  O   H1  H2  O   H1  H2  O   H1  H2  O   H1  
H2  O   H1  H2  O   H1  H2  O   H1  H2  O   H1  H2  O   H1  H2  O   H1  H2  O   
H1  H2  O   H1  H2  O   H1  H2  O   H1  H2  O   H1  H2  O   H1  H2  O   H1  H2  
O   H1  H2  O   H1  H2  O   H1  H2  O   H1  H2  O   H1  H2  O   H1  H2  O   H1  
H2  O   H1  H2  O   H1  H2  O   H1  H2  O   H1  H2  O   H1  H2  O   H1  H2  O   
H1  H2  O   H1  H2  O   H1  H2  O   H1  H2  O   H1  H2  O   H1  H2  O   H1  H2  
O   H1  H2  O   H1  H2  O   H1  H2  O   H1  H2  O   H1  H2  O   H1  H2  O   H1  
H2  O   H1  H2  O   H1  H2  O   H1  H2  O   H1  H2  O   H1  H2  O   H1  H2  O   
H1  H2  O   H1  H2  O   H1  H2  O   H1  H2  O   H1  H2  O   H1  H2  O   H1  H2  
O   H1  H2  O   H1  H2  O   H1  H2  O   H1  H2  O   H1  H2  O   H1  H2  O   H1  
H2  O   H1  H2  O   H1  H2  O   H1  H2  O   H1  H2  O   H1  H2  O   H1  H2  O   
H1  H2  O   H1  H2  O   H1  H2  O   H1  H2  O   H1  H2  O   H1  H2  O   H1  H2  
O   H1  H2  O   H1  H2  O   H1  H2  O   H1  H2  O   H1  H2  O   H1  H2  O   H1  
H2  O   H1  H2  O   H1  H2  O   H1  H2  O   H1  H2  O   H1  H2  O   H1  H2  O   
H1  H2  O   H1  H2  O   H1  H2  O   H1  H2  O   H1  H2  O   H1  H2  O   H1  H2  
O   H1  H2  O   H1  H2  O   H1  H2  O   H1  H2  O   H1  H2  O   H1  H2  O   H1  
H2  O   H1  H2  O   H1  H2  O   H1  H2  O   H1  H2  O   H1  H2  O   H1  H2  O   
H1  H2  O   H1  H2  O   H1  H2  O   H1  H2  O   H1  H2  O   H1  H2  O   H1  H2  
O   H1  H2  O   H1  H2  O   H1  H2  O   H1  H2  O   H1  H2  O   H1  H2  O   H1  
H2  O   H1  H2  O   H1  H2  O   H1  H2  O   H1  H2  O   H1  H2  O   H1  H2  O   
H1  H2  O   H1  H2  O   H1  H2  O   H1  H2  O   H1  H2  O   H1  H2  O   H1  H2  
O   H1  H2  O   H1  H2  O   H1  H2  O   H1  H2  O   H1  H2  O   H1  H2  O   H1  
H2  O   H1  H2  O   H1  H2  O   H1  H2  O   H1  H2  O   H1  H2  O   H1  H2  O   
H1  H2  O   H1  H2  O   H1  H2  O   H1  H2  O   H1  H2  O   H1  H2  O   H1  H2  
O   H1  H2  O   H1  H2  O   H1  H2  O   H1  H2  O   H1  H2  O   H1  H2  O   H1  
H2  O   H1  H2  O   H1  H2  O   H1  H2  O   H1  H2  O   H1  H2  O   H1  H2  O   
H1  H2  O   H1  H2  O   H1  H2  O   H1  H2  O   H1  H2  O   H1  H2  O   H1  H2  
O   H1  H2  O   H1  H2  O   H1  H2  O   H1  H2  O   H1  H2  O   H1  H2  O   H1  
H2  O   H1  H2  O   H1  H2  O   H1  H2  O   H1  H2  O   H1  H2  O   H1  H2  O   
H1  H2  O   H1  H2  O   H1  H2  O   H1  H2  O   H1  H2  O   H1  H2  O   H1  H2  
O   H1  H2  O   H1  H2  O   H1  H2  O   H1  H2  O   H1  H2  O   H1  H2  O   H1  
H2  O   H1  H2  O   H1  H2  O   H1  H2  O   H1  H2  O   H1  H2  O   H1  H2  O   
H1  H2  O   H1  H2  O   H1  H2  O   H1  H2  O   H1  H2  O   H1  H2  O   H1  H2  
O   H1  H2  O   H1  H2  O   H1  H2  O   H1  H2  O   H1  H2  O   H1  H2  O   H1  
H2  O   H1  H2  O   H1  H2  O   H1  H2  O   H1  H2  O   H1  H2  O   H1  H2  O   
H1  H2  O   H1  H2  O   H1  H2  O   H1  H2  O   H1  H2  O   H1  H2  O   H1  H2  
O   H1  H2  O   H1  H2  O   H1  H2  O   H1  H2  O   H1  H2  O   H1  H2  O   H1  
H2  O   H1  H2  O   H1  H2  O   H1  H2  O   H1  H2  O   H1  H2  O   H1  H2  O   
H1  H2  O   H1  H2  O   H1  H2  O   H1  H2  O   H1  H2  O   H1  H2  O   H1  H2  
O   H1  H2  O   H1  H2  O   H1  H2  O   H1  H2  O   H1  H2  O   H1  H2  O   H1  
H2  O   H1  H2  O   H1  H2  O   H1  H2  O   H1  H2  O   H1  H2  O   H1  H2  O   
H1  H2  O   H1  H2  O   H1  H2  O   H1  H2  O   H1  H2  O   H1  H2  O   H1  H2  
O   H1  H2  O   H1  H2  O   H1  H2  O   H1  H2  O   H1  H2  O   H1  H2  O   H1  
H2  O   H1  H2  O   H1  H2  O   H1  H2  O   H1  H2  O   H1  H2  O   H1  H2  O   
H1  H2  O   H1  H2  O   H1  H2  O   H1  H2  O   H1  H2  O   H1  H2  O   H1  H2  
O   H1  H2  O   H1  H2  O   H1  H2  O   H1  H2  O   H1  H2  O   H1  H2  O   H1  
H2  O   H1  H2  O   H1  H2  O   H1  H2  O   H1  H2  O   H1  H2  O   H1  H2  O   
H1  H2  O   H1  H2  O   H1  H2  O   H1  H2  O   H1  H2  O   H1  H2  O   H1  H2  
O   H1  H2  O   H1  H2  O   H1  H2  O   H1  H2  O   H1  H2  O   H1  H2  O   H1  
H2  O   H1  H2  O   H1  H2  O   H1  H2  O   H1  H2  O   H1  H2  O   H1  H2  O   
H1  H2  O   H1  H2  O   H1  H2  O   H1  H2  O   H1  H2  O   H1  H2  O   H1  H2  
O   H1  H2  O   H1  H2  O   H1  H2  O   H1  H2  O   H1  H2  O   H1  H2  O   H1  
H2  O   H1  H2  O   H1  H2  O   H1  H2  O   H1  H2  O   H1  H2  O   H1  H2  O   
H1  H2  O   H1  H2  O   H1  H2  O   H1  H2  O   H1  H2  O   H1  H2  O   H1  H2  
O   H1  H2  O   H1  H2  O   H1  H2  O   H1  H2  O   H1  H2  O   H1  H2  O   H1  
H2  O   H1  H2  O   H1  H2  O   H1  H2  O   H1  H2  O   H1  H2  O   H1  H2  O   
H1  H2  O   H1  H2  O   H1  H2  O   H1  H2  O   H1  H2  O   H1  H2  O   H1  H2  
O   H1  H2  O   H1  H2  O   H1  H2  O   H1  H2  O   H1  H2  O   H1  H2  O   H1  
H2  O   H1  H2  O   H1  H2  O   H1  H2  O   H1  H2  O   H1  H2  O   H1  H2  O   
H1  H2  O   H1  H2  O   H1  H2  O   H1  H2  O   H1  H2  O   H1  H2  O   H1  H2  
O   H1  H2  O   H1  H2  O   H1  H2  O   H1  H2  O   H1  H2  O   H1  H2  O   H1  
H2  O   H1  H2  O   H1  H2  O   H1  H2  O   H1  H2  O   H1  H2  O   H1  H2  O   
H1  H2  O   H1  H2  O   H1  H2  O   H1  H2  O   H1  H2  O   H1  H2  O   H1  H2  
O   H1  H2  O   H1  H2  O   H1  H2  O   H1  H2  O   H1  H2  O   H1  H2  O   H1  
H2  O   H1  H2  O   H1  H2  O   H1  H2  O   H1  H2  O   H1  H2  O   H1  H2  O   
H1  H2  O   H1  H2  O   H1  H2  O   H1  H2  O   H1  H2  O   H1  H2  O   H1  H2  
O   H1  H2  O   H1  H2  O   H1  H2  O   H1  H2  O   H1  H2  O   H1  H2  O   H1  
H2  O   H1  H2  O   H1  H2  O   H1  H2  O   H1  H2  O   H1  H2  O   H1  H2  O   
H1  H2  O   H1  H2  O   H1  H2  O   H1  H2  O   H1  H2  O   H1  H2  O   H1  H2  
O   H1  H2  O   H1  H2  O   H1  H2  O   H1  H2  O   H1  H2  O   H1  H2  O   H1  
H2  O   H1  H2  O   H1  H2  O   H1  H2  O   H1  H2  O   H1  H2  O   H1  H2  O   
H1  H2  O   H1  H2  O   H1  H2  O   H1  H2  O   H1  H2  O   H1  H2  O   H1  H2  
O   H1  H2  O   H1  H2  O   H1  H2  O   H1  H2  O   H1  H2  O   H1  H2  O   H1  
H2  O   H1  H2  O   H1  H2  O   H1  H2  O   H1  H2  O   H1  H2  O   H1  H2  O   
H1  H2  O   H1  H2  O   H1  H2  O   H1  H2  O   H1  H2  O   H1  H2  O   H1  H2  
O   H1  H2  O   H1  H2  O   H1  H2  O   H1  H2  O   H1  H2  O   H1  H2  O   H1  
H2  O   H1  H2  O   H1  H2  O   H1  H2  O   H1  H2  O   H1  H2  O   H1  H2  O   
H1  H2  O   H1  H2  O   H1  H2  O   H1  H2  O   H1  H2  O   H1  H2  O   H1  H2  
O   H1  H2  O   H1  H2  O   H1  H2  O   H1  H2  O   H1  H2  O   H1  H2  O   H1  
H2  O   H1  H2  O   H1  H2  O   H1  H2  O   H1  H2  O   H1  H2  O   H1  H2  O   
H1  H2  O   H1  H2  O   H1  H2  O   H1  H2  O   H1  H2  O   H1  H2  O   H1  H2  
O   H1  H2  O   H1  H2  O   H1  H2  O   H1  H2  O   H1  H2  O   H1  H2  O   H1  
H2  O   H1  H2  O   H1  H2  O   H1  H2  O   H1  H2  O   H1  H2  O   H1  H2  O   
H1  H2  O   H1  H2  O   H1  H2  O   H1  H2  O   H1  H2  O   H1  H2  O   H1  H2  
O   H1  H2  O   H1  H2  O   H1  H2  O   H1  H2  O   H1  H2  O   H1  H2  O   H1  
H2  O   H1  H2  O   H1  H2  O   H1  H2  O   H1  H2  O   H1  H2  O   H1  H2  O   
H1  H2  O   H1  H2  O   H1  H2  O   H1  H2  O   H1  H2  O   H1  H2  O   H1  H2  
O   H1  H2  O   H1  H2  O   H1  H2  O   H1  H2  O   H1  H2  O   H1  H2  O   H1  
H2  O   H1  H2  O   H1  H2  O   H1  H2  O   H1  H2  O   H1  H2  O   H1  H2  O   
H1  H2  O   H1  H2  O   H1  H2  O   H1  H2  O   H1  H2  O   H1  H2  O   H1  H2  
O   H1  H2  O   H1  H2  O   H1  H2  O   H1  H2  O   H1  H2  O   H1  H2  O   H1  
H2  O   H1  H2  O   H1  H2  O   H1  H2  O   H1  H2  O   H1  H2  O   H1  H2  O   
H1  H2  O   H1  H2  O   H1  H2  O   H1  H2  O   H1  H2  O   H1  H2  O   H1  H2  
O   H1  H2  O   H1  H2  O   H1  H2  O   H1  H2  O   H1  H2  O   H1  H2  O   H1  
H2  O   H1  H2  O   H1  H2  O   H1  H2  O   H1  H2  O   H1  H2  O   H1  H2  O   
H1  H2  O   H1  H2  O   H1  H2  O   H1  H2  O   H1  H2  O   H1  H2  O   H1  H2  
O   H1  H2  O   H1  H2  O   H1  H2  O   H1  H2  O   H1  H2  O   H1  H2  O   H1  
H2  O   H1  H2  O   H1  H2  O   H1  H2  O   H1  H2  O   H1  H2  O   H1  H2  O   
H1  H2  O   H1  H2  O   H1  H2  O   H1  H2  O   H1  H2  O   H1  H2  O   H1  H2  
O   H1  H2  O   H1  H2  O   H1  H2  O   H1  H2  O   H1  H2  O   H1  H2  O   H1  
H2  O   H1  H2  O   H1  H2  O   H1  H2  O   H1  H2  O   H1  H2  O   H1  H2  O   
H1  H2  O   H1  H2  O   H1  H2  O   H1  H2  O   H1  H2  O   H1  H2  O   H1  H2  
O   H1  H2  O   H1  H2  O   H1  H2  O   H1  H2  O   H1  H2  O   H1  H2  O   H1  
H2  O   H1  H2  O   H1  H2  O   H1  H2  O   H1  H2  O   H1  H2  O   H1  H2  O   
H1  H2  O   H1  H2  O   H1  H2  O   H1  H2  O   H1  H2  O   H1  H2  O   H1  H2  
O   H1  H2  O   H1  H2  O   H1  H2  O   H1  H2  O   H1  H2  O   H1  H2  O   H1  
H2  O   H1  H2  O   H1  H2  O   H1  H2  O   H1  H2  O   H1  H2  O   H1  H2  O   
H1  H2  O   H1  H2  O   H1  H2  O   H1  H2  O   H1  H2  O   H1  H2  O   H1  H2  
O   H1  H2  O   H1  H2  O   H1  H2  O   H1  H2  O   H1  H2  O   H1  H2  O   H1  
H2  O   H1  H2  O   H1  H2  O   H1  H2  O   H1  H2  O   H1  H2  O   H1  H2  O   
H1  H2  O   H1  H2  O   H1  H2  O   H1  H2  O   H1  H2  O   H1  H2  O   H1  H2  
O   H1  H2  O   H1  H2  O   H1  H2  O   H1  H2  O   H1  H2  O   H1  H2  O   H1  
H2  O   H1  H2  O   H1  H2  O   H1  H2  O   H1  H2  O   H1  H2  O   H1  H2  O   
H1  H2  O   H1  H2  O   H1  H2  O   H1  H2  O   H1  H2  O   H1  H2  O   H1  H2  
O   H1  H2  O   H1  H2  O   H1  H2  O   H1  H2  O   H1  H2  O   H1  H2  O   H1  
H2  O   H1  H2  O   H1  H2  O   H1  H2  O   H1  H2  O   H1  H2  O   H1  H2  O   
H1  H2  O   H1  H2  O   H1  H2  O   H1  H2  O   H1  H2  O   H1  H2  O   H1  H2  
O   H1  H2  O   H1  H2  O   H1  H2  O   H1  H2  O   H1  H2  O   H1  H2  O   H1  
H2  O   H1  H2  O   H1  H2  O   H1  H2  O   H1  H2  O   H1  H2  O   H1  H2  O   
H1  H2  O   H1  H2  O   H1  H2  O   H1  H2  O   H1  H2  O   H1  H2  O   H1  H2  
O   H1  H2  O   H1  H2  O   H1  H2  O   H1  H2  O   H1  H2  O   H1  H2  O   H1  
H2  O   H1  H2  O   H1  H2  O   H1  H2  O   H1  H2  O   H1  H2  O   H1  H2  O   
H1  H2  O   H1  H2  O   H1  H2  O   H1  H2  O   H1  H2  O   H1  H2  O   H1  H2  
O   H1  H2  O   H1  H2  O   H1  H2  O   H1  H2  O   H1  H2  O   H1  H2  O   H1  
H2  O   H1  H2  O   H1  H2  O   H1  H2  O   H1  H2  O   H1  H2  O   H1  H2  O   
H1  H2  O   H1  H2  O   H1  H2  O   H1  H2  O   H1  H2  O   H1  H2  O   H1  H2  
O   H1  H2  O   H1  H2  O   H1  H2  O   H1  H2  O   H1  H2  O   H1  H2  O   H1  
H2  O   H1  H2  O   H1  H2  O   H1  H2  O   H1  H2  O   H1  H2  O   H1  H2  O   
H1  H2  O   H1  H2  O   H1  H2  O   H1  H2  O   H1  H2  O   H1  H2  O   H1  H2  
O   H1  H2  O   H1  H2  O   H1  H2  O   H1  H2  O   H1  H2  O   H1  H2  O   H1  
H2  O   H1  H2  O   H1  H2  O   H1  H2  O   H1  H2  O   H1  H2  O   H1  H2  O   
H1  H2  O   H1  H2  O   H1  H2  O   H1  H2  O   H1  H2  O   H1  H2  O   H1  H2  
O   H1  H2  O   H1  H2  O   H1  H2  O   H1  H2  O   H1  H2  O   H1  H2  O   H1  
H2  O   H1  H2  O   H1  H2  O   H1  H2  O   H1  H2  O   H1  H2  O   H1  H2  O   
H1  H2  O   H1  H2  O   H1  H2  O   H1  H2  O   H1  H2  O   H1  H2  O   H1  H2  
O   H1  H2  O   H1  H2  O   H1  H2  O   H1  H2  O   H1  H2  O   H1  H2  O   H1  
H2  O   H1  H2  O   H1  H2  O   H1  H2  O   H1  H2  O   H1  H2  O   H1  H2  O   
H1  H2  O   H1  H2  O   H1  H2  O   H1  H2  O   H1  H2  O   H1  H2  O   H1  H2  
O   H1  H2  O   H1  H2  O   H1  H2  O   H1  H2  O   H1  H2  O   H1  H2  O   H1  
H2  O   H1  H2  O   H1  H2  O   H1  H2  O   H1  H2  O   H1  H2  O   H1  H2  O   
H1  H2  O   H1  H2  O   H1  H2  O   H1  H2  O   H1  H2  O   H1  H2  O   H1  H2  
O   H1  H2  O   H1  H2  O   H1  H2  O   H1  H2  O   H1  H2  O   H1  H2  O   H1  
H2  O   H1  H2  O   H1  H2  O   H1  H2  O   H1  H2  O   H1  H2  O   H1  H2  O   
H1  H2  O   H1  H2  O   H1  H2  O   H1  H2  O   H1  H2  O   H1  H2  O   H1  H2  
O   H1  H2  O   H1  H2  O   H1  H2  O   H1  H2  O   H1  H2  O   H1  H2  O   H1  
H2  O   H1  H2  O   H1  H2  O   H1  H2  O   H1  H2  O   H1  H2  O   H1  H2  O   
H1  H2  O   H1  H2  O   H1  H2  O   H1  H2  O   H1  H2  O   H1  H2  O   H1  H2  
O   H1  H2  O   H1  H2  O   H1  H2  O   H1  H2  O   H1  H2  O   H1  H2  O   H1  
H2  O   H1  H2  O   H1  H2  O   H1  H2  O   H1  H2  O   H1  H2  O   H1  H2  O   
H1  H2  O   H1  H2  O   H1  H2  O   H1  H2  O   H1  H2  O   H1  H2  O   H1  H2  
O   H1  H2  O   H1  H2  O   H1  H2  O   H1  H2  O   H1  H2  O   H1  H2  O   H1  
H2  O   H1  H2  O   H1  H2  O   H1  H2  O   H1  H2  O   H1  H2  O   H1  H2  O   
H1  H2  O   H1  H2  O   H1  H2  O   H1  H2  O   H1  H2  O   H1  H2  O   H1  H2  
O   H1  H2  O   H1  H2  O   H1  H2  O   H1  H2  O   H1  H2  O   H1  H2  O   H1  
H2  O   H1  H2  O   H1  H2  O   H1  H2  O   H1  H2  O   H1  H2  O   H1  H2  O   
H1  H2  O   H1  H2  O   H1  H2  O   H1  H2  O   H1  H2  O   H1  H2  O   H1  H2  
O   H1  H2  O   H1  H2  O   H1  H2  O   H1  H2  O   H1  H2  O   H1  H2  O   H1  
H2  O   H1  H2  O   H1  H2  O   H1  H2  O   H1  H2  O   H1  H2  O   H1  H2  O   
H1  H2  O   H1  H2  O   H1  H2  O   H1  H2  O   H1  H2  O   H1  H2  O   H1  H2  
O   H1  H2  O   H1  H2  O   H1  H2  O   H1  H2  O   H1  H2  O   H1  H2  O   H1  
H2  O   H1  H2  O   H1  H2  O   H1  H2  O   H1  H2  O   H1  H2  O   H1  H2  O   
H1  H2  O   H1  H2  O   H1  H2  O   H1  H2  O   H1  H2  O   H1  H2  O   H1  H2  
O   H1  H2  O   H1  H2  O   H1  H2  O   H1  H2  O   H1  H2  O   H1  H2  O   H1  
H2  O   H1  H2  O   H1  H2  O   H1  H2  O   H1  H2  O   H1  H2  O   H1  H2  O   
H1  H2  O   H1  H2  O   H1  H2  O   H1  H2  O   H1  H2  O   H1  H2  O   H1  H2  
O   H1  H2  O   H1  H2  O   H1  H2  O   H1  H2  O   H1  H2  O   H1  H2  O   H1  
H2  O   H1  H2  O   H1  H2  O   H1  H2  O   H1  H2  O   H1  H2  O   H1  H2  O   
H1  H2  O   H1  H2  O   H1  H2  O   H1  H2  O   H1  H2  O   H1  H2  O   H1  H2  
O   H1  H2  O   H1  H2  O   H1  H2  O   H1  H2  O   H1  H2  O   H1  H2  O   H1  
H2  O   H1  H2  O   H1  H2  O   H1  H2  O   H1  H2  O   H1  H2  O   H1  H2  O   
H1  H2  O   H1  H2  O   H1  H2  O   H1  H2  O   H1  H2  O   H1  H2  O   H1  H2  
O   H1  H2  O   H1  H2  O   H1  H2  O   H1  H2  O   H1  H2  O   H1  H2  O   H1  
H2  O   H1  H2  O   H1  H2  O   H1  H2  O   H1  H2  O   H1  H2  O   H1  H2  O   
H1  H2  O   H1  H2  O   H1  H2  O   H1  H2  O   H1  H2  O   H1  H2  O   H1  H2  
O   H1  H2  O   H1  H2  O   H1  H2  O   H1  H2  O   H1  H2  O   H1  H2  O   H1  
H2  O   H1  H2  O   H1  H2  O   H1  H2  O   H1  H2  O   H1  H2  O   H1  H2  O   
H1  H2  O   H1  H2  O   H1  H2  O   H1  H2  O   H1  H2  O   H1  H2  O   H1  H2  
O   H1  H2  O   H1  H2  O   H1  H2  O   H1  H2  O   H1  H2  O   H1  H2  O   H1  
H2  O   H1  H2  O   H1  H2  O   H1  H2  O   H1  H2  O   H1  H2  O   H1  H2  O   
H1  H2  O   H1  H2  O   H1  H2  O   H1  H2  O   H1  H2  O   H1  H2  O   H1  H2  
O   H1  H2  O   H1  H2  O   H1  H2  O   H1  H2  O   H1  H2  O   H1  H2  O   H1  
H2  O   H1  H2  O   H1  H2  O   H1  H2  O   H1  H2  O   H1  H2  O   H1  H2  O   
H1  H2  O   H1  H2  O   H1  H2  O   H1  H2  O   H1  H2  O   H1  H2  O   H1  H2  
O   H1  H2  O   H1  H2  O   H1  H2  O   H1  H2  O   H1  H2  O   H1  H2  O   H1  
H2  O   H1  H2  O   H1  H2  O   H1  H2  O   H1  H2  O   H1  H2  O   H1  H2  O   
H1  H2  O   H1  H2  O   H1  H2  O   H1  H2  O   H1  H2  O   H1  H2  O   H1  H2  
O   H1  H2  O   H1  H2  O   H1  H2  O   H1  H2  O   H1  H2  O   H1  H2  O   H1  
H2  O   H1  H2  O   H1  H2  O   H1  H2  O   H1  H2  O   H1  H2  O   H1  H2  O   
H1  H2  O   H1  H2  O   H1  H2  O   H1  H2  O   H1  H2  O   H1  H2  O   H1  H2  
O   H1  H2  O   H1  H2  O   H1  H2  O   H1  H2  O   H1  H2  O   H1  H2  O   H1  
H2  O   H1  H2  O   H1  H2  O   H1  H2  O   H1  H2  O   H1  H2  O   H1  H2  O   
H1  H2  O   H1  H2  O   H1  H2  O   H1  H2  O   H1  H2  O   H1  H2  O   H1  H2  
O   H1  H2  O   H1  H2  O   H1  H2  O   H1  H2  O   H1  H2  O   H1  H2  O   H1  
H2  O   H1  H2  O   H1  H2  O   H1  H2  O   H1  H2  O   H1  H2  O   H1  H2  O   
H1  H2  O   H1  H2  O   H1  H2  O   H1  H2  O   H1  H2  O   H1  H2  O   H1  H2  
O   H1  H2  O   H1  H2  O   H1  H2  O   H1  H2  O   H1  H2  O   H1  H2  O   H1  
H2  O   H1  H2  O   H1  H2  O   H1  H2  O   H1  H2  O   H1  H2  O   H1  H2  O   
H1  H2  O   H1  H2  O   H1  H2  O   H1  H2  O   H1  H2  O   H1  H2  O   H1  H2  
O   H1  H2  O   H1  H2  O   H1  H2  O   H1  H2  O   H1  H2  O   H1  H2  O   H1  
H2  O   H1  H2  O   H1  H2  O   H1  H2  O   H1  H2  O   H1  H2  O   H1  H2  O   
H1  H2  O   H1  H2  O   H1  H2  O   H1  H2  O   H1  H2  O   H1  H2  O   H1  H2  
O   H1  H2  O   H1  H2  O   H1  H2  O   H1  H2  O   H1  H2  O   H1  H2  O   H1  
H2  O   H1  H2  O   H1  H2  O   H1  H2  O   H1  H2  O   H1  H2  O   H1  H2  O   
H1  H2  O   H1  H2  O   H1  H2  O   H1  H2  O   H1  H2  O   H1  H2  O   H1  H2  
O   H1  H2  O   H1  H2  O   H1  H2  O   H1  H2  O   H1  H2  O   H1  H2  O   H1  
H2  O   H1  H2  O   H1  H2  O   H1  H2  O   H1  H2  O   H1  H2  O   H1  H2  O   
H1  H2  O   H1  H2  O   H1  H2  O   H1  H2  O   H1  H2  O   H1  H2  O   H1  H2  
O   H1  H2  O   H1  H2  O   H1  H2  O   H1  H2  O   H1  H2  O   H1  H2  O   H1  
H2  O   H1  H2  O   H1  H2  O   H1  H2  O   H1  H2  O   H1  H2  O   H1  H2  O   
H1  H2  O   H1  H2  O   H1  H2  O   H1  H2  O   H1  H2  O   H1  H2  O   H1  H2  
O   H1  H2  O   H1  H2  O   H1  H2  O   H1  H2  O   H1  H2  O   H1  H2  O   H1  
H2  O   H1  H2  O   H1  H2  O   H1  H2  O   H1  H2  O   H1  H2  O   H1  H2  O   
H1  H2  O   H1  H2  O   H1  H2  O   H1  H2  O   H1  H2  O   H1  H2  O   H1  H2  
O   H1  H2  O   H1  H2  O   H1  H2  O   H1  H2  O   H1  H2  O   H1  H2  O   H1  
H2  O   H1  H2  O   H1  H2  O   H1  H2  O   H1  H2  O   H1  H2  O   H1  H2  O   
H1  H2  O   H1  H2  O   H1  H2  O   H1  H2  O   H1  H2  O   H1  H2  O   H1  H2  
O   H1  H2  O   H1  H2  O   H1  H2  O   H1  H2  O   H1  H2  O   H1  H2  O   H1  
H2  O   H1  H2  O   H1  H2  O   H1  H2  O   H1  H2  O   H1  H2  O   H1  H2  O   
H1  H2  O   H1  H2  O   H1  H2  O   H1  H2  O   H1  H2  O   H1  H2  O   H1  H2  
O   H1  H2  O   H1  H2  O   H1  H2  O   H1  H2  O   H1  H2  O   H1  H2  O   H1  
H2  O   H1  H2  O   H1  H2  O   H1  H2  O   H1  H2  O   H1  H2  O   H1  H2  O   
H1  H2  O   H1  H2  O   H1  H2  O   H1  H2  O   H1  H2  O   H1  H2  O   H1  H2  
O   H1  H2  O   H1  H2  O   H1  H2  O   H1  H2  O   H1  H2  O   H1  H2  O   H1  
H2  O   H1  H2  O   H1  H2  O   H1  H2  O   H1  H2  O   H1  H2  O   H1  H2  O   
H1  H2  O   H1  H2  O   H1  H2  O   H1  H2  O   H1  H2  O   H1  H2  O   H1  H2  
O   H1  H2  O   H1  H2  O   H1  H2  O   H1  H2  O   H1  H2  O   H1  H2  O   H1  
H2  O   H1  H2  O   H1  H2  O   H1  H2  O   H1  H2  O   H1  H2  O   H1  H2  O   
H1  H2  O   H1  H2  O   H1  H2  O   H1  H2  O   H1  H2  O   H1  H2  O   H1  H2  
O   H1  H2  O   H1  H2  O   H1  H2  O   H1  H2  O   H1  H2  O   H1  H2  O   H1  
H2  O   H1  H2  O   H1  H2  O   H1  H2  O   H1  H2  O   H1  H2  O   H1  H2  O   
H1  H2  O   H1  H2  O   H1  H2  O   H1  H2  O   H1  H2  O   H1  H2  O   H1  H2  
O   H1  H2  O   H1  H2  O   H1  H2  O   H1  H2  O   H1  H2  O   H1  H2  O   H1  
H2  O   H1  H2  O   H1  H2  O   H1  H2  O   H1  H2  O   H1  H2  O   H1  H2  O   
H1  H2  O   H1  H2  O   H1  H2  O   H1  H2  O   H1  H2  O   H1  H2  O   H1  H2  
O   H1  H2  O   H1  H2  O   H1  H2  O   H1  H2  O   H1  H2  O   H1  H2  O   H1  
H2  O   H1  H2  O   H1  H2  O   H1  H2  O   H1  H2  O   H1  H2  O   H1  H2  O   
H1  H2  O   H1  H2  O   H1  H2  O   H1  H2  O   H1  H2  O   H1  H2  O   H1  H2  
O   H1  H2  O   H1  H2  O   H1  H2  O   H1  H2  O   H1  H2  O   H1  H2  O   H1  
H2  O   H1  H2  O   H1  H2  O   H1  H2  O   H1  H2  O   H1  H2  O   H1  H2  O   
H1  H2  O   H1  H2  O   H1  H2  O   H1  H2  O   H1  H2  O   H1  H2  O   H1  H2  
O   H1  H2  O   H1  H2  O   H1  H2  O   H1  H2  O   H1  H2  O   H1  H2  O   H1  
H2  O   H1  H2  O   H1  H2  O   H1  H2  O   H1  H2  O   H1  H2  O   H1  H2  O   
H1  H2  O   H1  H2  O   H1  H2  O   H1  H2  O   H1  H2  O   H1  H2  O   H1  H2  
O   H1  H2  O   H1  H2  O   H1  H2  O   H1  H2  O   H1  H2  O   H1  H2  O   H1  
H2  O   H1  H2  O   H1  H2  O   H1  H2  O   H1  H2  O   H1  H2  O   H1  H2  O   
H1  H2  O   H1  H2  O   H1  H2  O   H1  H2  O   H1  H2  O   H1  H2  O   H1  H2  
O   H1  H2  O   H1  H2  O   H1  H2  O   H1  H2  O   H1  H2  O   H1  H2  O   H1  
H2  O   H1  H2  O   H1  H2  O   H1  H2  O   H1  H2  O   H1  H2  O   H1  H2  O   
H1  H2  O   H1  H2  O   H1  H2  O   H1  H2  O   H1  H2  O   H1  H2  O   H1  H2  
O   H1  H2  O   H1  H2  O   H1  H2  O   H1  H2  O   H1  H2  O   H1  H2  O   H1  
H2  O   H1  H2  O   H1  H2  O   H1  H2  O   H1  H2  O   H1  H2  O   H1  H2  O   
H1  H2  O   H1  H2  O   H1  H2  O   H1  H2  O   H1  H2  O   H1  H2  O   H1  H2  
O   H1  H2  O   H1  H2  O   H1  H2  O   H1  H2  O   H1  H2  O   H1  H2  O   H1  
H2  O   H1  H2  O   H1  H2  O   H1  H2  O   H1  H2  O   H1  H2  O   H1  H2  O   
H1  H2  O   H1  H2  O   H1  H2  O   H1  H2  O   H1  H2  O   H1  H2  O   H1  H2  
O   H1  H2  O   H1  H2  O   H1  H2  O   H1  H2  O   H1  H2  O   H1  H2  O   H1  
H2  O   H1  H2  O   H1  H2  O   H1  H2  O   H1  H2  O   H1  H2  O   H1  H2  O   
H1  H2  O   H1  H2  O   H1  H2  O   H1  H2  O   H1  H2  O   H1  H2  O   H1  H2  
O   H1  H2  O   H1  H2  O   H1  H2  O   H1  H2  O   H1  H2  O   H1  H2  O   H1  
H2  O   H1  H2  O   H1  H2  O   H1  H2  O   H1  H2  O   H1  H2  O   H1  H2  O   
H1  H2  O   H1  H2  O   H1  H2  O   H1  H2  O   H1  H2  O   H1  H2  O   H1  H2  
O   H1  H2  O   H1  H2  O   H1  H2  O   H1  H2  O   H1  H2  O   H1  H2  O   H1  
H2  O   H1  H2  O   H1  H2  O   H1  H2  O   H1  H2  O   H1  H2  O   H1  H2  O   
H1  H2  O   H1  H2  O   H1  H2  O   H1  H2  O   H1  H2  O   H1  H2  O   H1  H2  
O   H1  H2  O   H1  H2  O   H1  H2  O   H1  H2  O   H1  H2  O   H1  H2  O   H1  
H2  O   H1  H2  O   H1  H2  O   H1  H2  O   H1  H2  O   H1  H2  O   H1  H2  O   
H1  H2  O   H1  H2  O   H1  H2  O   H1  H2  O   H1  H2  O   H1  H2  O   H1  H2  
O   H1  H2  O   H1  H2  O   H1  H2  O   H1  H2  O   H1  H2  O   H1  H2  O   H1  
H2  O   H1  H2  O   H1  H2  O   H1  H2  O   H1  H2  O   H1  H2  O   H1  H2  O   
H1  H2  O   H1  H2  O   H1  H2  O   H1  H2  O   H1  H2  O   H1  H2  O   H1  H2  
O   H1  H2  O   H1  H2  O   H1  H2  O   H1  H2  O   H1  H2  O   H1  H2  O   H1  
H2  O   H1  H2  O   H1  H2  O   H1  H2  O   H1  H2  O   H1  H2  O   H1  H2  O   
H1  H2  O   H1  H2  O   H1  H2  O   H1  H2  O   H1  H2  O   H1  H2  O   H1  H2  
O   H1  H2  O   H1  H2  O   H1  H2  O   H1  H2  O   H1  H2  O   H1  H2  O   H1  
H2  O   H1  H2  O   H1  H2  O   H1  H2  O   H1  H2  O   H1  H2  O   H1  H2  O   
H1  H2  O   H1  H2  O   H1  H2  O   H1  H2  O   H1  H2  O   H1  H2  O   H1  H2  
O   H1  H2  O   H1  H2  O   H1  H2  O   H1  H2  O   H1  H2  O   H1  H2  O   H1  
H2  O   H1  H2  O   H1  H2  O   H1  H2  O   H1  H2  O   H1  H2  O   H1  H2  O   
H1  H2  O   H1  H2  O   H1  H2  O   H1  H2  O   H1  H2  O   H1  H2  O   H1  H2  
O   H1  H2  O   H1  H2  O   H1  H2  O   H1  H2  O   H1  H2  O   H1  H2  O   H1  
H2  O   H1  H2  O   H1  H2  O   H1  H2  O   H1  H2  O   H1  H2  O   H1  H2  O   
H1  H2  O   H1  H2  O   H1  H2  O   H1  H2  O   H1  H2  O   H1  H2  O   H1  H2  
O   H1  H2  O   H1  H2  O   H1  H2  O   H1  H2  O   H1  H2  O   H1  H2  O   H1  
H2  O   H1  H2  O   H1  H2  O   H1  H2  O   H1  H2  O   H1  H2  O   H1  H2  O   
H1  H2  O   H1  H2  O   H1  H2  O   H1  H2  O   H1  H2  O   H1  H2  O   H1  H2  
O   H1  H2  O   H1  H2  O   H1  H2  O   H1  H2  O   H1  H2  O   H1  H2  O   H1  
H2  O   H1  H2  O   H1  H2  O   H1  H2  O   H1  H2  O   H1  H2  O   H1  H2  O   
H1  H2  O   H1  H2  O   H1  H2  O   H1  H2  O   H1  H2  O   H1  H2  O   H1  H2  
O   H1  H2  O   H1  H2  O   H1  H2  O   H1  H2  O   H1  H2  O   H1  H2  O   H1  
H2  O   H1  H2  O   H1  H2  O   H1  H2  O   H1  H2  O   H1  H2  O   H1  H2  O   
H1  H2  O   H1  H2  O   H1  H2  O   H1  H2  O   H1  H2  O   H1  H2  O   H1  H2  
O   H1  H2  O   H1  H2  O   H1  H2  O   H1  H2  O   H1  H2  O   H1  H2  O   H1  
H2  O   H1  H2  O   H1  H2  O   H1  H2  O   H1  H2  O   H1  H2  O   H1  H2  O   
H1  H2  O   H1  H2  O   H1  H2  O   H1  H2  O   H1  H2  O   H1  H2  O   H1  H2  
O   H1  H2  O   H1  H2  O   H1  H2  O   H1  H2  O   H1  H2  O   H1  H2  O   H1  
H2  O   H1  H2  O   H1  H2  O   H1  H2  O   H1  H2  O   H1  H2  O   H1  H2  O   
H1  H2  O   H1  H2  O   H1  H2  O   H1  H2  O   H1  H2  O   H1  H2  O   H1  H2  
O   H1  H2  O   H1  H2  O   H1  H2  O   H1  H2  O   H1  H2  O   H1  H2  O   H1  
H2  O   H1  H2  O   H1  H2  O   H1  H2  O   H1  H2  O   H1  H2  O   H1  H2  O   
H1  H2  O   H1  H2  O   H1  H2  O   H1  H2  O   H1  H2  O   H1  H2  O   H1  H2  
O   H1  H2  O   H1  H2  O   H1  H2  O   H1  H2  O   H1  H2  O   H1  H2  O   H1  
H2  O   H1  H2  O   H1  H2  O   H1  H2  O   H1  H2  O   H1  H2  O   H1  H2  O   
H1  H2  O   H1  H2  O   H1  H2  O   H1  H2  O   H1  H2  O   H1  H2  O   H1  H2  
O   H1  H2  O   H1  H2  O   H1  H2  O   H1  H2  O   H1  H2  O   H1  H2  O   H1  
H2  O   H1  H2  O   H1  H2  O   H1  H2  O   H1  H2  O   H1  H2  O   H1  H2  O   
H1  H2  O   H1  H2  O   H1  H2  O   H1  H2  O   H1  H2  O   H1  H2  O   H1  H2  
O   H1  H2  O   H1  H2  O   H1  H2  O   H1  H2  O   H1  H2  O   H1  H2  O   H1  
H2  O   H1  H2  O   H1  H2  O   H1  H2  O   H1  H2  O   H1  H2  O   H1  H2  O   
H1  H2  O   H1  H2  O   H1  H2  O   H1  H2  O   H1  H2  O   H1  H2  O   H1  H2  
O   H1  H2  O   H1  H2  O   H1  H2  O   H1  H2  O   H1  H2  O   H1  H2  O   H1  
H2  O   H1  H2  O   H1  H2  O   H1  H2  O   H1  H2  O   H1  H2  O   H1  H2  O   
H1  H2  O   H1  H2  O   H1  H2  O   H1  H2  O   H1  H2  O   H1  H2  O   H1  H2  
O   H1  H2  O   H1  H2  O   H1  H2  O   H1  H2  O   H1  H2  O   H1  H2  O   H1  
H2  O   H1  H2  O   H1  H2  O   H1  H2  O   H1  H2  O   H1  H2  O   H1  H2  O   
H1  H2  O   H1  H2  O   H1  H2  O   H1  H2  O   H1  H2  O   H1  H2  O   H1  H2  
O   H1  H2  O   H1  H2  O   H1  H2  O   H1  H2  O   H1  H2  O   H1  H2  O   H1  
H2  O   H1  H2  O   H1  H2  O   H1  H2  O   H1  H2  O   H1  H2  O   H1  H2  O   
H1  H2  O   H1  H2  O   H1  H2  O   H1  H2  O   H1  H2  O   H1  H2  O   H1  H2  
O   H1  H2  O   H1  H2  O   H1  H2  O   H1  H2  O   H1  H2  O   H1  H2  O   H1  
H2  O   H1  H2  O   H1  H2  O   H1  H2  O   H1  H2  O   H1  H2  O   H1  H2  O   
H1  H2  O   H1  H2  O   H1  H2  O   H1  H2  O   H1  H2  O   H1  H2  O   H1  H2  
O   H1  H2  O   H1  H2  O   H1  H2  O   H1  H2  O   H1  H2  O   H1  H2  O   H1  
H2  O   H1  H2  O   H1  H2  O   H1  H2  O   H1  H2  O   H1  H2  O   H1  H2  O   
H1  H2  O   H1  H2  O   H1  H2  O   H1  H2  O   H1  H2  O   H1  H2  O   H1  H2  
O   H1  H2  O   H1  H2  O   H1  H2  O   H1  H2  O   H1  H2  O   H1  H2  O   H1  
H2  O   H1  H2  O   H1  H2  O   H1  H2  O   H1  H2  O   H1  H2  O   H1  H2  O   
H1  H2  O   H1  H2  O   H1  H2  O   H1  H2  O   H1  H2  O   H1  H2  O   H1  H2  
O   H1  H2  O   H1  H2  O   H1  H2  O   H1  H2  O   H1  H2  O   H1  H2  O   H1  
H2  O   H1  H2  O   H1  H2  O   H1  H2  O   H1  H2  O   H1  H2  O   H1  H2  O   
H1  H2  O   H1  H2  O   H1  H2  O   H1  H2  O   H1  H2  O   H1  H2  O   H1  H2  
O   H1  H2  O   H1  H2  O   H1  H2  O   H1  H2  O   H1  H2  O   H1  H2  O   H1  
H2  O   H1  H2  O   H1  H2  O   H1  H2  O   H1  H2  O   H1  H2  O   H1  H2  O   
H1  H2  O   H1  H2  O   H1  H2  O   H1  H2  O   H1  H2  O   H1  H2  O   H1  H2  
O   H1  H2  O   H1  H2  O   H1  H2  O   H1  H2  O   H1  H2  O   H1  H2  O   H1  
H2  O   H1  H2  O   H1  H2  O   H1  H2  O   H1  H2  O   H1  H2  O   H1  H2  O   
H1  H2  O   H1  H2  O   H1  H2  O   H1  H2  O   H1  H2  O   H1  H2  O   H1  H2  
O   H1  H2  O   H1  H2  O   H1  H2  O   H1  H2  O   H1  H2  O   H1  H2  O   H1  
H2  O   H1  H2  O   H1  H2  O   H1  H2  O   H1  H2  O   H1  H2  O   H1  H2  O   
H1  H2  O   H1  H2  O   H1  H2  O   H1  H2  O   H1  H2  O   H1  H2  O   H1  H2  
O   H1  H2  O   H1  H2  O   H1  H2  O   H1  H2  O   H1  H2  O   H1  H2  O   H1  
H2  O   H1  H2  O   H1  H2  O   H1  H2  O   H1  H2  O   H1  H2  O   H1  H2  O   
H1  H2  O   H1  H2  O   H1  H2  O   H1  H2  O   H1  H2  O   H1  H2  O   H1  H2  
O   H1  H2  O   H1  H2  O   H1  H2  O   H1  H2  O   H1  H2  O   H1  H2  O   H1  
H2  O   H1  H2  O   H1  H2  O   H1  H2  O   H1  H2  O   H1  H2  O   H1  H2  O   
H1  H2  O   H1  H2  O   H1  H2  O   H1  H2  O   H1  H2  O   H1  H2  O   H1  H2  
O   H1  H2  O   H1  H2  O   H1  H2  O   H1  H2  O   H1  H2  O   H1  H2  O   H1  
H2  O   H1  H2  O   H1  H2  O   H1  H2  O   H1  H2  O   H1  H2  O   H1  H2  O   
H1  H2  O   H1  H2  O   H1  H2  O   H1  H2  O   H1  H2  O   H1  H2  O   H1  H2  
O   H1  H2  O   H1  H2  O   H1  H2  O   H1  H2  O   H1  H2  O   H1  H2  O   H1  
H2  O   H1  H2  O   H1  H2  O   H1  H2  O   H1  H2  O   H1  H2  O   H1  H2  O   
H1  H2  O   H1  H2  O   H1  H2  O   H1  H2  O   H1  H2  O   H1  H2  O   H1  H2  
O   H1  H2  O   H1  H2  O   H1  H2  O   H1  H2  O   H1  H2  O   H1  H2  O   H1  
H2  O   H1  H2  O   H1  H2  O   H1  H2  O   H1  H2  O   H1  H2  O   H1  H2  O   
H1  H2  O   H1  H2  O   H1  H2  O   H1  H2  O   H1  H2  O   H1  H2  O   H1  H2  
O   H1  H2  O   H1  H2  O   H1  H2  O   H1  H2  O   H1  H2  O   H1  H2  O   H1  
H2  O   H1  H2  O   H1  H2  O   H1  H2  O   H1  H2  O   H1  H2  O   H1  H2  O   
H1  H2  O   H1  H2  O   H1  H2  O   H1  H2  O   H1  H2  O   H1  H2  O   H1  H2  
O   H1  H2  O   H1  H2  O   H1  H2  O   H1  H2  O   H1  H2  O   H1  H2  O   H1  
H2  O   H1  H2  O   H1  H2  O   H1  H2  O   H1  H2  O   H1  H2  O   H1  H2  O   
H1  H2  O   H1  H2  O   H1  H2  O   H1  H2  O   H1  H2  O   H1  H2  O   H1  H2  
O   H1  H2  O   H1  H2  O   H1  H2  O   H1  H2  O   H1  H2  O   H1  H2  O   H1  
H2  O   H1  H2  O   H1  H2  O   H1  H2  O   H1  H2  O   H1  H2  O   H1  H2  O   
H1  H2  O   H1  H2  O   H1  H2  O   H1  H2  O   H1  H2  O   H1  H2  O   H1  H2  
O   H1  H2  O   H1  H2  O   H1  H2  O   H1  H2  O   H1  H2  O   H1  H2  O   H1  
H2  O   H1  H2  O   H1  H2  O   H1  H2  O   H1  H2  O   H1  H2  O   H1  H2  O   
H1  H2  O   H1  H2  O   H1  H2  O   H1  H2  O   H1  H2  O   H1  H2  O   H1  H2  
O   H1  H2  O   H1  H2  O   H1  H2  O   H1  H2  O   H1  H2  O   H1  H2  O   H1  
H2  O   H1  H2  O   H1  H2  O   H1  H2  O   H1  H2  O   H1  H2  O   H1  H2  O   
H1  H2  O   H1  H2  O   H1  H2  O   H1  H2  O   H1  H2  O   H1  H2  O   H1  H2  
O   H1  H2  O   H1  H2  O   H1  H2  O   H1  H2  O   H1  H2  O   H1  H2  O   H1  
H2  O   H1  H2  O   H1  H2  O   H1  H2  O   H1  H2  O   H1  H2  O   H1  H2  O   
H1  H2  O   H1  H2  O   H1  H2  O   H1  H2  O   H1  H2  O   H1  H2  O   H1  H2  
O   H1  H2  O   H1  H2  O   H1  H2  O   H1  H2  O   H1  H2  O   H1  H2  O   H1  
H2  O   H1  H2  O   H1  H2  O   H1  H2  O   H1  H2  O   H1  H2  O   H1  H2  O   
H1  H2  O   H1  H2  O   H1  H2  O   H1  H2  O   H1  H2  O   H1  H2  O   H1  H2  
O   H1  H2  O   H1  H2  O   H1  H2  O   H1  H2  O   H1  H2  O   H1  H2  O   H1  
H2  O   H1  H2  O   H1  H2  O   H1  H2  O   H1  H2  O   H1  H2  O   H1  H2  O   
H1  H2  O   H1  H2  O   H1  H2  O   H1  H2  O   H1  H2  O   H1  H2  O   H1  H2  
O   H1  H2  O   H1  H2  O   H1  H2  O   H1  H2  O   H1  H2  O   H1  H2  O   H1  
H2  O   H1  H2  O   H1  H2  O   H1  H2  O   H1  H2  O   H1  H2  O   H1  H2  O   
H1  H2  O   H1  H2  O   H1  H2  O   H1  H2  O   H1  H2  O   H1  H2  O   H1  H2  
O   H1  H2  O   H1  H2  O   H1  H2  O   H1  H2  O   H1  H2  O   H1  H2  O   H1  
H2  O   H1  H2  O   H1  H2  O   H1  H2  O   H1  H2  O   H1  H2  O   H1  H2  O   
H1  H2  O   H1  H2  O   H1  H2  O   H1  H2  O   H1  H2  O   H1  H2  O   H1  H2  
O   H1  H2  O   H1  H2  O   H1  H2  O   H1  H2  O   H1  H2  O   H1  H2  O   H1  
H2  O   H1  H2  O   H1  H2  O   H1  H2  O   H1  H2  O   H1  H2  O   H1  H2  O   
H1  H2  O   H1  H2  O   H1  H2  O   H1  H2  O   H1  H2  O   H1  H2  O   H1  H2  
O   H1  H2  O   H1  H2  O   H1  H2  O   H1  H2  O   H1  H2  O   H1  H2  O   H1  
H2  O   H1  H2  O   H1  H2  O   H1  H2  O   H1  H2  O   H1  H2  O   H1  H2  O   
H1  H2  O   H1  H2  O   H1  H2  O   H1  H2  O   H1  H2  O   H1  H2  O   H1  H2  
O   H1  H2  O   H1  H2  O   H1  H2  O   H1  H2  O   H1  H2  O   H1  H2  O   H1  
H2  O   H1  H2  O   H1  H2  O   H1  H2  O   H1  H2  O   H1  H2  O   H1  H2  O   
H1  H2  O   H1  H2  O   H1  H2  O   H1  H2  O   H1  H2  O   H1  H2  O   H1  H2  
O   H1  H2  O   H1  H2  O   H1  H2  O   H1  H2  O   H1  H2  O   H1  H2  O   H1  
H2  O   H1  H2  O   H1  H2  O   H1  H2  O   H1  H2  O   H1  H2  O   H1  H2  O   
H1  H2  O   H1  H2  O   H1  H2  O   H1  H2  O   H1  H2  O   H1  H2  O   H1  H2  
O   H1  H2  O   H1  H2  O   H1  H2  O   H1  H2  O   H1  H2  O   H1  H2  O   H1  
H2  O   H1  H2  O   H1  H2  O   H1  H2  O   H1  H2  O   H1  H2  O   H1  H2  O   
H1  H2  O   H1  H2  O   H1  H2  O   H1  H2  O   H1  H2  O   H1  H2  O   H1  H2  
O   H1  H2  O   H1  H2  O   H1  H2  O   H1  H2  O   H1  H2  O   H1  H2  O   H1  
H2  O   H1  H2  O   H1  H2  O   H1  H2  O   H1  H2  O   H1  H2  O   H1  H2  O   
H1  H2  O   H1  H2  O   H1  H2  O   H1  H2  O   H1  H2  O   H1  H2  O   H1  H2  
O   H1  H2  O   H1  H2  O   H1  H2  O   H1  H2  O   H1  H2  O   H1  H2  O   H1  
H2  O   H1  H2  O   H1  H2  O   H1  H2  O   H1  H2  O   H1  H2  O   H1  H2  O   
H1  H2  O   H1  H2  O   H1  H2  
%FLAG CHARGE                                                                    
%FORMAT(5E16.8)                                                                 
  5.36282289E+00  2.99210166E+00  2.99210166E+00  2.99210166E+00 -1.82223000E-01
  1.63089585E+00  1.63089585E+00  1.12304035E+01 -1.04268001E+01 -7.57501011E+00
  4.95464337E+00 -2.55112200E-02  1.59627348E+00 -2.76978960E-01  5.37557850E-01
  5.37557850E-01 -2.00445300E-02 -3.47317038E+00  3.09596877E+00 -4.26584043E+00
  3.01761288E+00  5.87851398E+00 -1.01662212E+01  7.27434216E+00 -4.26584043E+00
  3.01761288E+00 -3.47317038E+00  3.09596877E+00  1.08841798E+01 -1.03484442E+01
 -9.40817349E+00  5.35006728E+00  6.94269630E-01  1.60356240E+00 -5.52135690E-01
 -2.22312060E-01 -2.22312060E-01  1.45669066E+01 -1.46033512E+01 -1.46033512E+01
  9.77808618E+00 -1.06035564E+01 -4.64304204E+00  3.49868160E-01  7.12491930E-01
  7.12491930E-01  3.44401470E-01  3.88134990E-01  3.88134990E-01 -1.27556100E-01
  4.61024190E-01  4.61024190E-01 -4.84713180E-01  1.16804943E+00  1.07438681E+01
 -1.04741780E+01 -9.40817349E+00  5.35006728E+00  7.23425310E-01  2.01356415E+00
  1.02044880E+00 -3.15245790E-01 -3.15245790E-01  2.47823280E-01 -7.74447750E-01
 -7.74447750E-01  1.46762404E+01 -1.49204192E+01 -1.49204192E+01  9.77808618E+00
 -1.06035564E+01 -7.57501011E+00  4.95464337E+00 -7.08847470E-01  1.83498561E+00
  6.65842842E+00  7.83558900E-02 -4.44259674E+00  1.16987166E+00  1.16987166E+00
  1.16987166E+00 -1.23200970E+01  7.47478746E+00  1.08841798E+01 -1.03484442E+01
 -7.57501011E+00  4.95464337E+00 -4.59201960E-01  1.27191654E+00  1.27191654E+00
  1.08841798E+01 -1.03484442E+01 -7.57501011E+00  4.95464337E+00 -7.08847470E-01
  1.83498561E+00  6.65842842E+00  7.83558900E-02 -4.44259674E+00  1.16987166E+00
  1.16987166E+00  1.16987166E+00 -1.23200970E+01  7.47478746E+00  1.08841798E+01
 -1.03484442E+01 -7.57501011E+00  4.95464337E+00 -5.01113250E-01  2.04636429E+00
 -9.11115000E-02  6.17735970E-01  6.17735970E-01 -2.57845545E+00 -2.98481274E+00
  3.75743826E+00 -6.22838214E+00  6.21744876E+00  2.51467740E+00 -4.73962023E+00
  2.86454556E+00 -2.06640882E+00  2.58209991E+00 -3.59343756E+00  2.63676681E+00
 -4.34966301E+00  3.09779100E+00  2.26503189E+00  1.08841798E+01 -1.03484442E+01
 -6.96274083E+00  4.88539863E+00 -4.54281939E+00  1.92427488E+00  1.92427488E+00
  1.31765451E+01 -1.43136167E+01 -1.43136167E+01  1.82223000E+01  1.82223000E+01
 -1.51973982E+01  7.59869910E+00  7.59869910E+00 -1.51973982E+01  7.59869910E+00
  7.59869910E+00 -1.51973982E+01  7.59869910E+00  7.59869910E+00 -1.51973982E+01
  7.59869910E+00  7.59869910E+00 -1.51973982E+01  7.59869910E+00  7.59869910E+00
 -1.51973982E+01  7.59869910E+00  7.59869910E+00 -1.51973982E+01  7.59869910E+00
  7.59869910E+00 -1.51973982E+01  7.59869910E+00  7.59869910E+00 -1.51973982E+01
  7.59869910E+00  7.59869910E+00 -1.51973982E+01  7.59869910E+00  7.59869910E+00
 -1.51973982E+01  7.59869910E+00  7.59869910E+00 -1.51973982E+01  7.59869910E+00
  7.59869910E+00 -1.51973982E+01  7.59869910E+00  7.59869910E+00 -1.51973982E+01
  7.59869910E+00  7.59869910E+00 -1.51973982E+01  7.59869910E+00  7.59869910E+00
 -1.51973982E+01  7.59869910E+00  7.59869910E+00 -1.51973982E+01  7.59869910E+00
  7.59869910E+00 -1.51973982E+01  7.59869910E+00  7.59869910E+00 -1.51973982E+01
  7.59869910E+00  7.59869910E+00 -1.51973982E+01  7.59869910E+00  7.59869910E+00
 -1.51973982E+01  7.59869910E+00  7.59869910E+00 -1.51973982E+01  7.59869910E+00
  7.59869910E+00 -1.51973982E+01  7.59869910E+00  7.59869910E+00 -1.51973982E+01
  7.59869910E+00  7.59869910E+00 -1.51973982E+01  7.59869910E+00  7.59869910E+00
 -1.51973982E+01  7.59869910E+00  7.59869910E+00 -1.51973982E+01  7.59869910E+00
  7.59869910E+00 -1.51973982E+01  7.59869910E+00  7.59869910E+00 -1.51973982E+01
  7.59869910E+00  7.59869910E+00 -1.51973982E+01  7.59869910E+00  7.59869910E+00
 -1.51973982E+01  7.59869910E+00  7.59869910E+00 -1.51973982E+01  7.59869910E+00
  7.59869910E+00 -1.51973982E+01  7.59869910E+00  7.59869910E+00 -1.51973982E+01
  7.59869910E+00  7.59869910E+00 -1.51973982E+01  7.59869910E+00  7.59869910E+00
 -1.51973982E+01  7.59869910E+00  7.59869910E+00 -1.51973982E+01  7.59869910E+00
  7.59869910E+00 -1.51973982E+01  7.59869910E+00  7.59869910E+00 -1.51973982E+01
  7.59869910E+00  7.59869910E+00 -1.51973982E+01  7.59869910E+00  7.59869910E+00
 -1.51973982E+01  7.59869910E+00  7.59869910E+00 -1.51973982E+01  7.59869910E+00
  7.59869910E+00 -1.51973982E+01  7.59869910E+00  7.59869910E+00 -1.51973982E+01
  7.59869910E+00  7.59869910E+00 -1.51973982E+01  7.59869910E+00  7.59869910E+00
 -1.51973982E+01  7.59869910E+00  7.59869910E+00 -1.51973982E+01  7.59869910E+00
  7.59869910E+00 -1.51973982E+01  7.59869910E+00  7.59869910E+00 -1.51973982E+01
  7.59869910E+00  7.59869910E+00 -1.51973982E+01  7.59869910E+00  7.59869910E+00
 -1.51973982E+01  7.59869910E+00  7.59869910E+00 -1.51973982E+01  7.59869910E+00
  7.59869910E+00 -1.51973982E+01  7.59869910E+00  7.59869910E+00 -1.51973982E+01
  7.59869910E+00  7.59869910E+00 -1.51973982E+01  7.59869910E+00  7.59869910E+00
 -1.51973982E+01  7.59869910E+00  7.59869910E+00 -1.51973982E+01  7.59869910E+00
  7.59869910E+00 -1.51973982E+01  7.59869910E+00  7.59869910E+00 -1.51973982E+01
  7.59869910E+00  7.59869910E+00 -1.51973982E+01  7.59869910E+00  7.59869910E+00
 -1.51973982E+01  7.59869910E+00  7.59869910E+00 -1.51973982E+01  7.59869910E+00
  7.59869910E+00 -1.51973982E+01  7.59869910E+00  7.59869910E+00 -1.51973982E+01
  7.59869910E+00  7.59869910E+00 -1.51973982E+01  7.59869910E+00  7.59869910E+00
 -1.51973982E+01  7.59869910E+00  7.59869910E+00 -1.51973982E+01  7.59869910E+00
  7.59869910E+00 -1.51973982E+01  7.59869910E+00  7.59869910E+00 -1.51973982E+01
  7.59869910E+00  7.59869910E+00 -1.51973982E+01  7.59869910E+00  7.59869910E+00
 -1.51973982E+01  7.59869910E+00  7.59869910E+00 -1.51973982E+01  7.59869910E+00
  7.59869910E+00 -1.51973982E+01  7.59869910E+00  7.59869910E+00 -1.51973982E+01
  7.59869910E+00  7.59869910E+00 -1.51973982E+01  7.59869910E+00  7.59869910E+00
 -1.51973982E+01  7.59869910E+00  7.59869910E+00 -1.51973982E+01  7.59869910E+00
  7.59869910E+00 -1.51973982E+01  7.59869910E+00  7.59869910E+00 -1.51973982E+01
  7.59869910E+00  7.59869910E+00 -1.51973982E+01  7.59869910E+00  7.59869910E+00
 -1.51973982E+01  7.59869910E+00  7.59869910E+00 -1.51973982E+01  7.59869910E+00
  7.59869910E+00 -1.51973982E+01  7.59869910E+00  7.59869910E+00 -1.51973982E+01
  7.59869910E+00  7.59869910E+00 -1.51973982E+01  7.59869910E+00  7.59869910E+00
 -1.51973982E+01  7.59869910E+00  7.59869910E+00 -1.51973982E+01  7.59869910E+00
  7.59869910E+00 -1.51973982E+01  7.59869910E+00  7.59869910E+00 -1.51973982E+01
  7.59869910E+00  7.59869910E+00 -1.51973982E+01  7.59869910E+00  7.59869910E+00
 -1.51973982E+01  7.59869910E+00  7.59869910E+00 -1.51973982E+01  7.59869910E+00
  7.59869910E+00 -1.51973982E+01  7.59869910E+00  7.59869910E+00 -1.51973982E+01
  7.59869910E+00  7.59869910E+00 -1.51973982E+01  7.59869910E+00  7.59869910E+00
 -1.51973982E+01  7.59869910E+00  7.59869910E+00 -1.51973982E+01  7.59869910E+00
  7.59869910E+00 -1.51973982E+01  7.59869910E+00  7.59869910E+00 -1.51973982E+01
  7.59869910E+00  7.59869910E+00 -1.51973982E+01  7.59869910E+00  7.59869910E+00
 -1.51973982E+01  7.59869910E+00  7.59869910E+00 -1.51973982E+01  7.59869910E+00
  7.59869910E+00 -1.51973982E+01  7.59869910E+00  7.59869910E+00 -1.51973982E+01
  7.59869910E+00  7.59869910E+00 -1.51973982E+01  7.59869910E+00  7.59869910E+00
 -1.51973982E+01  7.59869910E+00  7.59869910E+00 -1.51973982E+01  7.59869910E+00
  7.59869910E+00 -1.51973982E+01  7.59869910E+00  7.59869910E+00 -1.51973982E+01
  7.59869910E+00  7.59869910E+00 -1.51973982E+01  7.59869910E+00  7.59869910E+00
 -1.51973982E+01  7.59869910E+00  7.59869910E+00 -1.51973982E+01  7.59869910E+00
  7.59869910E+00 -1.51973982E+01  7.59869910E+00  7.59869910E+00 -1.51973982E+01
  7.59869910E+00  7.59869910E+00 -1.51973982E+01  7.59869910E+00  7.59869910E+00
 -1.51973982E+01  7.59869910E+00  7.59869910E+00 -1.51973982E+01  7.59869910E+00
  7.59869910E+00 -1.51973982E+01  7.59869910E+00  7.59869910E+00 -1.51973982E+01
  7.59869910E+00  7.59869910E+00 -1.51973982E+01  7.59869910E+00  7.59869910E+00
 -1.51973982E+01  7.59869910E+00  7.59869910E+00 -1.51973982E+01  7.59869910E+00
  7.59869910E+00 -1.51973982E+01  7.59869910E+00  7.59869910E+00 -1.51973982E+01
  7.59869910E+00  7.59869910E+00 -1.51973982E+01  7.59869910E+00  7.59869910E+00
 -1.51973982E+01  7.59869910E+00  7.59869910E+00 -1.51973982E+01  7.59869910E+00
  7.59869910E+00 -1.51973982E+01  7.59869910E+00  7.59869910E+00 -1.51973982E+01
  7.59869910E+00  7.59869910E+00 -1.51973982E+01  7.59869910E+00  7.59869910E+00
 -1.51973982E+01  7.59869910E+00  7.59869910E+00 -1.51973982E+01  7.59869910E+00
  7.59869910E+00 -1.51973982E+01  7.59869910E+00  7.59869910E+00 -1.51973982E+01
  7.59869910E+00  7.59869910E+00 -1.51973982E+01  7.59869910E+00  7.59869910E+00
 -1.51973982E+01  7.59869910E+00  7.59869910E+00 -1.51973982E+01  7.59869910E+00
  7.59869910E+00 -1.51973982E+01  7.59869910E+00  7.59869910E+00 -1.51973982E+01
  7.59869910E+00  7.59869910E+00 -1.51973982E+01  7.59869910E+00  7.59869910E+00
 -1.51973982E+01  7.59869910E+00  7.59869910E+00 -1.51973982E+01  7.59869910E+00
  7.59869910E+00 -1.51973982E+01  7.59869910E+00  7.59869910E+00 -1.51973982E+01
  7.59869910E+00  7.59869910E+00 -1.51973982E+01  7.59869910E+00  7.59869910E+00
 -1.51973982E+01  7.59869910E+00  7.59869910E+00 -1.51973982E+01  7.59869910E+00
  7.59869910E+00 -1.51973982E+01  7.59869910E+00  7.59869910E+00 -1.51973982E+01
  7.59869910E+00  7.59869910E+00 -1.51973982E+01  7.59869910E+00  7.59869910E+00
 -1.51973982E+01  7.59869910E+00  7.59869910E+00 -1.51973982E+01  7.59869910E+00
  7.59869910E+00 -1.51973982E+01  7.59869910E+00  7.59869910E+00 -1.51973982E+01
  7.59869910E+00  7.59869910E+00 -1.51973982E+01  7.59869910E+00  7.59869910E+00
 -1.51973982E+01  7.59869910E+00  7.59869910E+00 -1.51973982E+01  7.59869910E+00
  7.59869910E+00 -1.51973982E+01  7.59869910E+00  7.59869910E+00 -1.51973982E+01
  7.59869910E+00  7.59869910E+00 -1.51973982E+01  7.59869910E+00  7.59869910E+00
 -1.51973982E+01  7.59869910E+00  7.59869910E+00 -1.51973982E+01  7.59869910E+00
  7.59869910E+00 -1.51973982E+01  7.59869910E+00  7.59869910E+00 -1.51973982E+01
  7.59869910E+00  7.59869910E+00 -1.51973982E+01  7.59869910E+00  7.59869910E+00
 -1.51973982E+01  7.59869910E+00  7.59869910E+00 -1.51973982E+01  7.59869910E+00
  7.59869910E+00 -1.51973982E+01  7.59869910E+00  7.59869910E+00 -1.51973982E+01
  7.59869910E+00  7.59869910E+00 -1.51973982E+01  7.59869910E+00  7.59869910E+00
 -1.51973982E+01  7.59869910E+00  7.59869910E+00 -1.51973982E+01  7.59869910E+00
  7.59869910E+00 -1.51973982E+01  7.59869910E+00  7.59869910E+00 -1.51973982E+01
  7.59869910E+00  7.59869910E+00 -1.51973982E+01  7.59869910E+00  7.59869910E+00
 -1.51973982E+01  7.59869910E+00  7.59869910E+00 -1.51973982E+01  7.59869910E+00
  7.59869910E+00 -1.51973982E+01  7.59869910E+00  7.59869910E+00 -1.51973982E+01
  7.59869910E+00  7.59869910E+00 -1.51973982E+01  7.59869910E+00  7.59869910E+00
 -1.51973982E+01  7.59869910E+00  7.59869910E+00 -1.51973982E+01  7.59869910E+00
  7.59869910E+00 -1.51973982E+01  7.59869910E+00  7.59869910E+00 -1.51973982E+01
  7.59869910E+00  7.59869910E+00 -1.51973982E+01  7.59869910E+00  7.59869910E+00
 -1.51973982E+01  7.59869910E+00  7.59869910E+00 -1.51973982E+01  7.59869910E+00
  7.59869910E+00 -1.51973982E+01  7.59869910E+00  7.59869910E+00 -1.51973982E+01
  7.59869910E+00  7.59869910E+00 -1.51973982E+01  7.59869910E+00  7.59869910E+00
 -1.51973982E+01  7.59869910E+00  7.59869910E+00 -1.51973982E+01  7.59869910E+00
  7.59869910E+00 -1.51973982E+01  7.59869910E+00  7.59869910E+00 -1.51973982E+01
  7.59869910E+00  7.59869910E+00 -1.51973982E+01  7.59869910E+00  7.59869910E+00
 -1.51973982E+01  7.59869910E+00  7.59869910E+00 -1.51973982E+01  7.59869910E+00
  7.59869910E+00 -1.51973982E+01  7.59869910E+00  7.59869910E+00 -1.51973982E+01
  7.59869910E+00  7.59869910E+00 -1.51973982E+01  7.59869910E+00  7.59869910E+00
 -1.51973982E+01  7.59869910E+00  7.59869910E+00 -1.51973982E+01  7.59869910E+00
  7.59869910E+00 -1.51973982E+01  7.59869910E+00  7.59869910E+00 -1.51973982E+01
  7.59869910E+00  7.59869910E+00 -1.51973982E+01  7.59869910E+00  7.59869910E+00
 -1.51973982E+01  7.59869910E+00  7.59869910E+00 -1.51973982E+01  7.59869910E+00
  7.59869910E+00 -1.51973982E+01  7.59869910E+00  7.59869910E+00 -1.51973982E+01
  7.59869910E+00  7.59869910E+00 -1.51973982E+01  7.59869910E+00  7.59869910E+00
 -1.51973982E+01  7.59869910E+00  7.59869910E+00 -1.51973982E+01  7.59869910E+00
  7.59869910E+00 -1.51973982E+01  7.59869910E+00  7.59869910E+00 -1.51973982E+01
  7.59869910E+00  7.59869910E+00 -1.51973982E+01  7.59869910E+00  7.59869910E+00
 -1.51973982E+01  7.59869910E+00  7.59869910E+00 -1.51973982E+01  7.59869910E+00
  7.59869910E+00 -1.51973982E+01  7.59869910E+00  7.59869910E+00 -1.51973982E+01
  7.59869910E+00  7.59869910E+00 -1.51973982E+01  7.59869910E+00  7.59869910E+00
 -1.51973982E+01  7.59869910E+00  7.59869910E+00 -1.51973982E+01  7.59869910E+00
  7.59869910E+00 -1.51973982E+01  7.59869910E+00  7.59869910E+00 -1.51973982E+01
  7.59869910E+00  7.59869910E+00 -1.51973982E+01  7.59869910E+00  7.59869910E+00
 -1.51973982E+01  7.59869910E+00  7.59869910E+00 -1.51973982E+01  7.59869910E+00
  7.59869910E+00 -1.51973982E+01  7.59869910E+00  7.59869910E+00 -1.51973982E+01
  7.59869910E+00  7.59869910E+00 -1.51973982E+01  7.59869910E+00  7.59869910E+00
 -1.51973982E+01  7.59869910E+00  7.59869910E+00 -1.51973982E+01  7.59869910E+00
  7.59869910E+00 -1.51973982E+01  7.59869910E+00  7.59869910E+00 -1.51973982E+01
  7.59869910E+00  7.59869910E+00 -1.51973982E+01  7.59869910E+00  7.59869910E+00
 -1.51973982E+01  7.59869910E+00  7.59869910E+00 -1.51973982E+01  7.59869910E+00
  7.59869910E+00 -1.51973982E+01  7.59869910E+00  7.59869910E+00 -1.51973982E+01
  7.59869910E+00  7.59869910E+00 -1.51973982E+01  7.59869910E+00  7.59869910E+00
 -1.51973982E+01  7.59869910E+00  7.59869910E+00 -1.51973982E+01  7.59869910E+00
  7.59869910E+00 -1.51973982E+01  7.59869910E+00  7.59869910E+00 -1.51973982E+01
  7.59869910E+00  7.59869910E+00 -1.51973982E+01  7.59869910E+00  7.59869910E+00
 -1.51973982E+01  7.59869910E+00  7.59869910E+00 -1.51973982E+01  7.59869910E+00
  7.59869910E+00 -1.51973982E+01  7.59869910E+00  7.59869910E+00 -1.51973982E+01
  7.59869910E+00  7.59869910E+00 -1.51973982E+01  7.59869910E+00  7.59869910E+00
 -1.51973982E+01  7.59869910E+00  7.59869910E+00 -1.51973982E+01  7.59869910E+00
  7.59869910E+00 -1.51973982E+01  7.59869910E+00  7.59869910E+00 -1.51973982E+01
  7.59869910E+00  7.59869910E+00 -1.51973982E+01  7.59869910E+00  7.59869910E+00
 -1.51973982E+01  7.59869910E+00  7.59869910E+00 -1.51973982E+01  7.59869910E+00
  7.59869910E+00 -1.51973982E+01  7.59869910E+00  7.59869910E+00 -1.51973982E+01
  7.59869910E+00  7.59869910E+00 -1.51973982E+01  7.59869910E+00  7.59869910E+00
 -1.51973982E+01  7.59869910E+00  7.59869910E+00 -1.51973982E+01  7.59869910E+00
  7.59869910E+00 -1.51973982E+01  7.59869910E+00  7.59869910E+00 -1.51973982E+01
  7.59869910E+00  7.59869910E+00 -1.51973982E+01  7.59869910E+00  7.59869910E+00
 -1.51973982E+01  7.59869910E+00  7.59869910E+00 -1.51973982E+01  7.59869910E+00
  7.59869910E+00 -1.51973982E+01  7.59869910E+00  7.59869910E+00 -1.51973982E+01
  7.59869910E+00  7.59869910E+00 -1.51973982E+01  7.59869910E+00  7.59869910E+00
 -1.51973982E+01  7.59869910E+00  7.59869910E+00 -1.51973982E+01  7.59869910E+00
  7.59869910E+00 -1.51973982E+01  7.59869910E+00  7.59869910E+00 -1.51973982E+01
  7.59869910E+00  7.59869910E+00 -1.51973982E+01  7.59869910E+00  7.59869910E+00
 -1.51973982E+01  7.59869910E+00  7.59869910E+00 -1.51973982E+01  7.59869910E+00
  7.59869910E+00 -1.51973982E+01  7.59869910E+00  7.59869910E+00 -1.51973982E+01
  7.59869910E+00  7.59869910E+00 -1.51973982E+01  7.59869910E+00  7.59869910E+00
 -1.51973982E+01  7.59869910E+00  7.59869910E+00 -1.51973982E+01  7.59869910E+00
  7.59869910E+00 -1.51973982E+01  7.59869910E+00  7.59869910E+00 -1.51973982E+01
  7.59869910E+00  7.59869910E+00 -1.51973982E+01  7.59869910E+00  7.59869910E+00
 -1.51973982E+01  7.59869910E+00  7.59869910E+00 -1.51973982E+01  7.59869910E+00
  7.59869910E+00 -1.51973982E+01  7.59869910E+00  7.59869910E+00 -1.51973982E+01
  7.59869910E+00  7.59869910E+00 -1.51973982E+01  7.59869910E+00  7.59869910E+00
 -1.51973982E+01  7.59869910E+00  7.59869910E+00 -1.51973982E+01  7.59869910E+00
  7.59869910E+00 -1.51973982E+01  7.59869910E+00  7.59869910E+00 -1.51973982E+01
  7.59869910E+00  7.59869910E+00 -1.51973982E+01  7.59869910E+00  7.59869910E+00
 -1.51973982E+01  7.59869910E+00  7.59869910E+00 -1.51973982E+01  7.59869910E+00
  7.59869910E+00 -1.51973982E+01  7.59869910E+00  7.59869910E+00 -1.51973982E+01
  7.59869910E+00  7.59869910E+00 -1.51973982E+01  7.59869910E+00  7.59869910E+00
 -1.51973982E+01  7.59869910E+00  7.59869910E+00 -1.51973982E+01  7.59869910E+00
  7.59869910E+00 -1.51973982E+01  7.59869910E+00  7.59869910E+00 -1.51973982E+01
  7.59869910E+00  7.59869910E+00 -1.51973982E+01  7.59869910E+00  7.59869910E+00
 -1.51973982E+01  7.59869910E+00  7.59869910E+00 -1.51973982E+01  7.59869910E+00
  7.59869910E+00 -1.51973982E+01  7.59869910E+00  7.59869910E+00 -1.51973982E+01
  7.59869910E+00  7.59869910E+00 -1.51973982E+01  7.59869910E+00  7.59869910E+00
 -1.51973982E+01  7.59869910E+00  7.59869910E+00 -1.51973982E+01  7.59869910E+00
  7.59869910E+00 -1.51973982E+01  7.59869910E+00  7.59869910E+00 -1.51973982E+01
  7.59869910E+00  7.59869910E+00 -1.51973982E+01  7.59869910E+00  7.59869910E+00
 -1.51973982E+01  7.59869910E+00  7.59869910E+00 -1.51973982E+01  7.59869910E+00
  7.59869910E+00 -1.51973982E+01  7.59869910E+00  7.59869910E+00 -1.51973982E+01
  7.59869910E+00  7.59869910E+00 -1.51973982E+01  7.59869910E+00  7.59869910E+00
 -1.51973982E+01  7.59869910E+00  7.59869910E+00 -1.51973982E+01  7.59869910E+00
  7.59869910E+00 -1.51973982E+01  7.59869910E+00  7.59869910E+00 -1.51973982E+01
  7.59869910E+00  7.59869910E+00 -1.51973982E+01  7.59869910E+00  7.59869910E+00
 -1.51973982E+01  7.59869910E+00  7.59869910E+00 -1.51973982E+01  7.59869910E+00
  7.59869910E+00 -1.51973982E+01  7.59869910E+00  7.59869910E+00 -1.51973982E+01
  7.59869910E+00  7.59869910E+00 -1.51973982E+01  7.59869910E+00  7.59869910E+00
 -1.51973982E+01  7.59869910E+00  7.59869910E+00 -1.51973982E+01  7.59869910E+00
  7.59869910E+00 -1.51973982E+01  7.59869910E+00  7.59869910E+00 -1.51973982E+01
  7.59869910E+00  7.59869910E+00 -1.51973982E+01  7.59869910E+00  7.59869910E+00
 -1.51973982E+01  7.59869910E+00  7.59869910E+00 -1.51973982E+01  7.59869910E+00
  7.59869910E+00 -1.51973982E+01  7.59869910E+00  7.59869910E+00 -1.51973982E+01
  7.59869910E+00  7.59869910E+00 -1.51973982E+01  7.59869910E+00  7.59869910E+00
 -1.51973982E+01  7.59869910E+00  7.59869910E+00 -1.51973982E+01  7.59869910E+00
  7.59869910E+00 -1.51973982E+01  7.59869910E+00  7.59869910E+00 -1.51973982E+01
  7.59869910E+00  7.59869910E+00 -1.51973982E+01  7.59869910E+00  7.59869910E+00
 -1.51973982E+01  7.59869910E+00  7.59869910E+00 -1.51973982E+01  7.59869910E+00
  7.59869910E+00 -1.51973982E+01  7.59869910E+00  7.59869910E+00 -1.51973982E+01
  7.59869910E+00  7.59869910E+00 -1.51973982E+01  7.59869910E+00  7.59869910E+00
 -1.51973982E+01  7.59869910E+00  7.59869910E+00 -1.51973982E+01  7.59869910E+00
  7.59869910E+00 -1.51973982E+01  7.59869910E+00  7.59869910E+00 -1.51973982E+01
  7.59869910E+00  7.59869910E+00 -1.51973982E+01  7.59869910E+00  7.59869910E+00
 -1.51973982E+01  7.59869910E+00  7.59869910E+00 -1.51973982E+01  7.59869910E+00
  7.59869910E+00 -1.51973982E+01  7.59869910E+00  7.59869910E+00 -1.51973982E+01
  7.59869910E+00  7.59869910E+00 -1.51973982E+01  7.59869910E+00  7.59869910E+00
 -1.51973982E+01  7.59869910E+00  7.59869910E+00 -1.51973982E+01  7.59869910E+00
  7.59869910E+00 -1.51973982E+01  7.59869910E+00  7.59869910E+00 -1.51973982E+01
  7.59869910E+00  7.59869910E+00 -1.51973982E+01  7.59869910E+00  7.59869910E+00
 -1.51973982E+01  7.59869910E+00  7.59869910E+00 -1.51973982E+01  7.59869910E+00
  7.59869910E+00 -1.51973982E+01  7.59869910E+00  7.59869910E+00 -1.51973982E+01
  7.59869910E+00  7.59869910E+00 -1.51973982E+01  7.59869910E+00  7.59869910E+00
 -1.51973982E+01  7.59869910E+00  7.59869910E+00 -1.51973982E+01  7.59869910E+00
  7.59869910E+00 -1.51973982E+01  7.59869910E+00  7.59869910E+00 -1.51973982E+01
  7.59869910E+00  7.59869910E+00 -1.51973982E+01  7.59869910E+00  7.59869910E+00
 -1.51973982E+01  7.59869910E+00  7.59869910E+00 -1.51973982E+01  7.59869910E+00
  7.59869910E+00 -1.51973982E+01  7.59869910E+00  7.59869910E+00 -1.51973982E+01
  7.59869910E+00  7.59869910E+00 -1.51973982E+01  7.59869910E+00  7.59869910E+00
 -1.51973982E+01  7.59869910E+00  7.59869910E+00 -1.51973982E+01  7.59869910E+00
  7.59869910E+00 -1.51973982E+01  7.59869910E+00  7.59869910E+00 -1.51973982E+01
  7.59869910E+00  7.59869910E+00 -1.51973982E+01  7.59869910E+00  7.59869910E+00
 -1.51973982E+01  7.59869910E+00  7.59869910E+00 -1.51973982E+01  7.59869910E+00
  7.59869910E+00 -1.51973982E+01  7.59869910E+00  7.59869910E+00 -1.51973982E+01
  7.59869910E+00  7.59869910E+00 -1.51973982E+01  7.59869910E+00  7.59869910E+00
 -1.51973982E+01  7.59869910E+00  7.59869910E+00 -1.51973982E+01  7.59869910E+00
  7.59869910E+00 -1.51973982E+01  7.59869910E+00  7.59869910E+00 -1.51973982E+01
  7.59869910E+00  7.59869910E+00 -1.51973982E+01  7.59869910E+00  7.59869910E+00
 -1.51973982E+01  7.59869910E+00  7.59869910E+00 -1.51973982E+01  7.59869910E+00
  7.59869910E+00 -1.51973982E+01  7.59869910E+00  7.59869910E+00 -1.51973982E+01
  7.59869910E+00  7.59869910E+00 -1.51973982E+01  7.59869910E+00  7.59869910E+00
 -1.51973982E+01  7.59869910E+00  7.59869910E+00 -1.51973982E+01  7.59869910E+00
  7.59869910E+00 -1.51973982E+01  7.59869910E+00  7.59869910E+00 -1.51973982E+01
  7.59869910E+00  7.59869910E+00 -1.51973982E+01  7.59869910E+00  7.59869910E+00
 -1.51973982E+01  7.59869910E+00  7.59869910E+00 -1.51973982E+01  7.59869910E+00
  7.59869910E+00 -1.51973982E+01  7.59869910E+00  7.59869910E+00 -1.51973982E+01
  7.59869910E+00  7.59869910E+00 -1.51973982E+01  7.59869910E+00  7.59869910E+00
 -1.51973982E+01  7.59869910E+00  7.59869910E+00 -1.51973982E+01  7.59869910E+00
  7.59869910E+00 -1.51973982E+01  7.59869910E+00  7.59869910E+00 -1.51973982E+01
  7.59869910E+00  7.59869910E+00 -1.51973982E+01  7.59869910E+00  7.59869910E+00
 -1.51973982E+01  7.59869910E+00  7.59869910E+00 -1.51973982E+01  7.59869910E+00
  7.59869910E+00 -1.51973982E+01  7.59869910E+00  7.59869910E+00 -1.51973982E+01
  7.59869910E+00  7.59869910E+00 -1.51973982E+01  7.59869910E+00  7.59869910E+00
 -1.51973982E+01  7.59869910E+00  7.59869910E+00 -1.51973982E+01  7.59869910E+00
  7.59869910E+00 -1.51973982E+01  7.59869910E+00  7.59869910E+00 -1.51973982E+01
  7.59869910E+00  7.59869910E+00 -1.51973982E+01  7.59869910E+00  7.59869910E+00
 -1.51973982E+01  7.59869910E+00  7.59869910E+00 -1.51973982E+01  7.59869910E+00
  7.59869910E+00 -1.51973982E+01  7.59869910E+00  7.59869910E+00 -1.51973982E+01
  7.59869910E+00  7.59869910E+00 -1.51973982E+01  7.59869910E+00  7.59869910E+00
 -1.51973982E+01  7.59869910E+00  7.59869910E+00 -1.51973982E+01  7.59869910E+00
  7.59869910E+00 -1.51973982E+01  7.59869910E+00  7.59869910E+00 -1.51973982E+01
  7.59869910E+00  7.59869910E+00 -1.51973982E+01  7.59869910E+00  7.59869910E+00
 -1.51973982E+01  7.59869910E+00  7.59869910E+00 -1.51973982E+01  7.59869910E+00
  7.59869910E+00 -1.51973982E+01  7.59869910E+00  7.59869910E+00 -1.51973982E+01
  7.59869910E+00  7.59869910E+00 -1.51973982E+01  7.59869910E+00  7.59869910E+00
 -1.51973982E+01  7.59869910E+00  7.59869910E+00 -1.51973982E+01  7.59869910E+00
  7.59869910E+00 -1.51973982E+01  7.59869910E+00  7.59869910E+00 -1.51973982E+01
  7.59869910E+00  7.59869910E+00 -1.51973982E+01  7.59869910E+00  7.59869910E+00
 -1.51973982E+01  7.59869910E+00  7.59869910E+00 -1.51973982E+01  7.59869910E+00
  7.59869910E+00 -1.51973982E+01  7.59869910E+00  7.59869910E+00 -1.51973982E+01
  7.59869910E+00  7.59869910E+00 -1.51973982E+01  7.59869910E+00  7.59869910E+00
 -1.51973982E+01  7.59869910E+00  7.59869910E+00 -1.51973982E+01  7.59869910E+00
  7.59869910E+00 -1.51973982E+01  7.59869910E+00  7.59869910E+00 -1.51973982E+01
  7.59869910E+00  7.59869910E+00 -1.51973982E+01  7.59869910E+00  7.59869910E+00
 -1.51973982E+01  7.59869910E+00  7.59869910E+00 -1.51973982E+01  7.59869910E+00
  7.59869910E+00 -1.51973982E+01  7.59869910E+00  7.59869910E+00 -1.51973982E+01
  7.59869910E+00  7.59869910E+00 -1.51973982E+01  7.59869910E+00  7.59869910E+00
 -1.51973982E+01  7.59869910E+00  7.59869910E+00 -1.51973982E+01  7.59869910E+00
  7.59869910E+00 -1.51973982E+01  7.59869910E+00  7.59869910E+00 -1.51973982E+01
  7.59869910E+00  7.59869910E+00 -1.51973982E+01  7.59869910E+00  7.59869910E+00
 -1.51973982E+01  7.59869910E+00  7.59869910E+00 -1.51973982E+01  7.59869910E+00
  7.59869910E+00 -1.51973982E+01  7.59869910E+00  7.59869910E+00 -1.51973982E+01
  7.59869910E+00  7.59869910E+00 -1.51973982E+01  7.59869910E+00  7.59869910E+00
 -1.51973982E+01  7.59869910E+00  7.59869910E+00 -1.51973982E+01  7.59869910E+00
  7.59869910E+00 -1.51973982E+01  7.59869910E+00  7.59869910E+00 -1.51973982E+01
  7.59869910E+00  7.59869910E+00 -1.51973982E+01  7.59869910E+00  7.59869910E+00
 -1.51973982E+01  7.59869910E+00  7.59869910E+00 -1.51973982E+01  7.59869910E+00
  7.59869910E+00 -1.51973982E+01  7.59869910E+00  7.59869910E+00 -1.51973982E+01
  7.59869910E+00  7.59869910E+00 -1.51973982E+01  7.59869910E+00  7.59869910E+00
 -1.51973982E+01  7.59869910E+00  7.59869910E+00 -1.51973982E+01  7.59869910E+00
  7.59869910E+00 -1.51973982E+01  7.59869910E+00  7.59869910E+00 -1.51973982E+01
  7.59869910E+00  7.59869910E+00 -1.51973982E+01  7.59869910E+00  7.59869910E+00
 -1.51973982E+01  7.59869910E+00  7.59869910E+00 -1.51973982E+01  7.59869910E+00
  7.59869910E+00 -1.51973982E+01  7.59869910E+00  7.59869910E+00 -1.51973982E+01
  7.59869910E+00  7.59869910E+00 -1.51973982E+01  7.59869910E+00  7.59869910E+00
 -1.51973982E+01  7.59869910E+00  7.59869910E+00 -1.51973982E+01  7.59869910E+00
  7.59869910E+00 -1.51973982E+01  7.59869910E+00  7.59869910E+00 -1.51973982E+01
  7.59869910E+00  7.59869910E+00 -1.51973982E+01  7.59869910E+00  7.59869910E+00
 -1.51973982E+01  7.59869910E+00  7.59869910E+00 -1.51973982E+01  7.59869910E+00
  7.59869910E+00 -1.51973982E+01  7.59869910E+00  7.59869910E+00 -1.51973982E+01
  7.59869910E+00  7.59869910E+00 -1.51973982E+01  7.59869910E+00  7.59869910E+00
 -1.51973982E+01  7.59869910E+00  7.59869910E+00 -1.51973982E+01  7.59869910E+00
  7.59869910E+00 -1.51973982E+01  7.59869910E+00  7.59869910E+00 -1.51973982E+01
  7.59869910E+00  7.59869910E+00 -1.51973982E+01  7.59869910E+00  7.59869910E+00
 -1.51973982E+01  7.59869910E+00  7.59869910E+00 -1.51973982E+01  7.59869910E+00
  7.59869910E+00 -1.51973982E+01  7.59869910E+00  7.59869910E+00 -1.51973982E+01
  7.59869910E+00  7.59869910E+00 -1.51973982E+01  7.59869910E+00  7.59869910E+00
 -1.51973982E+01  7.59869910E+00  7.59869910E+00 -1.51973982E+01  7.59869910E+00
  7.59869910E+00 -1.51973982E+01  7.59869910E+00  7.59869910E+00 -1.51973982E+01
  7.59869910E+00  7.59869910E+00 -1.51973982E+01  7.59869910E+00  7.59869910E+00
 -1.51973982E+01  7.59869910E+00  7.59869910E+00 -1.51973982E+01  7.59869910E+00
  7.59869910E+00 -1.51973982E+01  7.59869910E+00  7.59869910E+00 -1.51973982E+01
  7.59869910E+00  7.59869910E+00 -1.51973982E+01  7.59869910E+00  7.59869910E+00
 -1.51973982E+01  7.59869910E+00  7.59869910E+00 -1.51973982E+01  7.59869910E+00
  7.59869910E+00 -1.51973982E+01  7.59869910E+00  7.59869910E+00 -1.51973982E+01
  7.59869910E+00  7.59869910E+00 -1.51973982E+01  7.59869910E+00  7.59869910E+00
 -1.51973982E+01  7.59869910E+00  7.59869910E+00 -1.51973982E+01  7.59869910E+00
  7.59869910E+00 -1.51973982E+01  7.59869910E+00  7.59869910E+00 -1.51973982E+01
  7.59869910E+00  7.59869910E+00 -1.51973982E+01  7.59869910E+00  7.59869910E+00
 -1.51973982E+01  7.59869910E+00  7.59869910E+00 -1.51973982E+01  7.59869910E+00
  7.59869910E+00 -1.51973982E+01  7.59869910E+00  7.59869910E+00 -1.51973982E+01
  7.59869910E+00  7.59869910E+00 -1.51973982E+01  7.59869910E+00  7.59869910E+00
 -1.51973982E+01  7.59869910E+00  7.59869910E+00 -1.51973982E+01  7.59869910E+00
  7.59869910E+00 -1.51973982E+01  7.59869910E+00  7.59869910E+00 -1.51973982E+01
  7.59869910E+00  7.59869910E+00 -1.51973982E+01  7.59869910E+00  7.59869910E+00
 -1.51973982E+01  7.59869910E+00  7.59869910E+00 -1.51973982E+01  7.59869910E+00
  7.59869910E+00 -1.51973982E+01  7.59869910E+00  7.59869910E+00 -1.51973982E+01
  7.59869910E+00  7.59869910E+00 -1.51973982E+01  7.59869910E+00  7.59869910E+00
 -1.51973982E+01  7.59869910E+00  7.59869910E+00 -1.51973982E+01  7.59869910E+00
  7.59869910E+00 -1.51973982E+01  7.59869910E+00  7.59869910E+00 -1.51973982E+01
  7.59869910E+00  7.59869910E+00 -1.51973982E+01  7.59869910E+00  7.59869910E+00
 -1.51973982E+01  7.59869910E+00  7.59869910E+00 -1.51973982E+01  7.59869910E+00
  7.59869910E+00 -1.51973982E+01  7.59869910E+00  7.59869910E+00 -1.51973982E+01
  7.59869910E+00  7.59869910E+00 -1.51973982E+01  7.59869910E+00  7.59869910E+00
 -1.51973982E+01  7.59869910E+00  7.59869910E+00 -1.51973982E+01  7.59869910E+00
  7.59869910E+00 -1.51973982E+01  7.59869910E+00  7.59869910E+00 -1.51973982E+01
  7.59869910E+00  7.59869910E+00 -1.51973982E+01  7.59869910E+00  7.59869910E+00
 -1.51973982E+01  7.59869910E+00  7.59869910E+00 -1.51973982E+01  7.59869910E+00
  7.59869910E+00 -1.51973982E+01  7.59869910E+00  7.59869910E+00 -1.51973982E+01
  7.59869910E+00  7.59869910E+00 -1.51973982E+01  7.59869910E+00  7.59869910E+00
 -1.51973982E+01  7.59869910E+00  7.59869910E+00 -1.51973982E+01  7.59869910E+00
  7.59869910E+00 -1.51973982E+01  7.59869910E+00  7.59869910E+00 -1.51973982E+01
  7.59869910E+00  7.59869910E+00 -1.51973982E+01  7.59869910E+00  7.59869910E+00
 -1.51973982E+01  7.59869910E+00  7.59869910E+00 -1.51973982E+01  7.59869910E+00
  7.59869910E+00 -1.51973982E+01  7.59869910E+00  7.59869910E+00 -1.51973982E+01
  7.59869910E+00  7.59869910E+00 -1.51973982E+01  7.59869910E+00  7.59869910E+00
 -1.51973982E+01  7.59869910E+00  7.59869910E+00 -1.51973982E+01  7.59869910E+00
  7.59869910E+00 -1.51973982E+01  7.59869910E+00  7.59869910E+00 -1.51973982E+01
  7.59869910E+00  7.59869910E+00 -1.51973982E+01  7.59869910E+00  7.59869910E+00
 -1.51973982E+01  7.59869910E+00  7.59869910E+00 -1.51973982E+01  7.59869910E+00
  7.59869910E+00 -1.51973982E+01  7.59869910E+00  7.59869910E+00 -1.51973982E+01
  7.59869910E+00  7.59869910E+00 -1.51973982E+01  7.59869910E+00  7.59869910E+00
 -1.51973982E+01  7.59869910E+00  7.59869910E+00 -1.51973982E+01  7.59869910E+00
  7.59869910E+00 -1.51973982E+01  7.59869910E+00  7.59869910E+00 -1.51973982E+01
  7.59869910E+00  7.59869910E+00 -1.51973982E+01  7.59869910E+00  7.59869910E+00
 -1.51973982E+01  7.59869910E+00  7.59869910E+00 -1.51973982E+01  7.59869910E+00
  7.59869910E+00 -1.51973982E+01  7.59869910E+00  7.59869910E+00 -1.51973982E+01
  7.59869910E+00  7.59869910E+00 -1.51973982E+01  7.59869910E+00  7.59869910E+00
 -1.51973982E+01  7.59869910E+00  7.59869910E+00 -1.51973982E+01  7.59869910E+00
  7.59869910E+00 -1.51973982E+01  7.59869910E+00  7.59869910E+00 -1.51973982E+01
  7.59869910E+00  7.59869910E+00 -1.51973982E+01  7.59869910E+00  7.59869910E+00
 -1.51973982E+01  7.59869910E+00  7.59869910E+00 -1.51973982E+01  7.59869910E+00
  7.59869910E+00 -1.51973982E+01  7.59869910E+00  7.59869910E+00 -1.51973982E+01
  7.59869910E+00  7.59869910E+00 -1.51973982E+01  7.59869910E+00  7.59869910E+00
 -1.51973982E+01  7.59869910E+00  7.59869910E+00 -1.51973982E+01  7.59869910E+00
  7.59869910E+00 -1.51973982E+01  7.59869910E+00  7.59869910E+00 -1.51973982E+01
  7.59869910E+00  7.59869910E+00 -1.51973982E+01  7.59869910E+00  7.59869910E+00
 -1.51973982E+01  7.59869910E+00  7.59869910E+00 -1.51973982E+01  7.59869910E+00
  7.59869910E+00 -1.51973982E+01  7.59869910E+00  7.59869910E+00 -1.51973982E+01
  7.59869910E+00  7.59869910E+00 -1.51973982E+01  7.59869910E+00  7.59869910E+00
 -1.51973982E+01  7.59869910E+00  7.59869910E+00 -1.51973982E+01  7.59869910E+00
  7.59869910E+00 -1.51973982E+01  7.59869910E+00  7.59869910E+00 -1.51973982E+01
  7.59869910E+00  7.59869910E+00 -1.51973982E+01  7.59869910E+00  7.59869910E+00
 -1.51973982E+01  7.59869910E+00  7.59869910E+00 -1.51973982E+01  7.59869910E+00
  7.59869910E+00 -1.51973982E+01  7.59869910E+00  7.59869910E+00 -1.51973982E+01
  7.59869910E+00  7.59869910E+00 -1.51973982E+01  7.59869910E+00  7.59869910E+00
 -1.51973982E+01  7.59869910E+00  7.59869910E+00 -1.51973982E+01  7.59869910E+00
  7.59869910E+00 -1.51973982E+01  7.59869910E+00  7.59869910E+00 -1.51973982E+01
  7.59869910E+00  7.59869910E+00 -1.51973982E+01  7.59869910E+00  7.59869910E+00
 -1.51973982E+01  7.59869910E+00  7.59869910E+00 -1.51973982E+01  7.59869910E+00
  7.59869910E+00 -1.51973982E+01  7.59869910E+00  7.59869910E+00 -1.51973982E+01
  7.59869910E+00  7.59869910E+00 -1.51973982E+01  7.59869910E+00  7.59869910E+00
 -1.51973982E+01  7.59869910E+00  7.59869910E+00 -1.51973982E+01  7.59869910E+00
  7.59869910E+00 -1.51973982E+01  7.59869910E+00  7.59869910E+00 -1.51973982E+01
  7.59869910E+00  7.59869910E+00 -1.51973982E+01  7.59869910E+00  7.59869910E+00
 -1.51973982E+01  7.59869910E+00  7.59869910E+00 -1.51973982E+01  7.59869910E+00
  7.59869910E+00 -1.51973982E+01  7.59869910E+00  7.59869910E+00 -1.51973982E+01
  7.59869910E+00  7.59869910E+00 -1.51973982E+01  7.59869910E+00  7.59869910E+00
 -1.51973982E+01  7.59869910E+00  7.59869910E+00 -1.51973982E+01  7.59869910E+00
  7.59869910E+00 -1.51973982E+01  7.59869910E+00  7.59869910E+00 -1.51973982E+01
  7.59869910E+00  7.59869910E+00 -1.51973982E+01  7.59869910E+00  7.59869910E+00
 -1.51973982E+01  7.59869910E+00  7.59869910E+00 -1.51973982E+01  7.59869910E+00
  7.59869910E+00 -1.51973982E+01  7.59869910E+00  7.59869910E+00 -1.51973982E+01
  7.59869910E+00  7.59869910E+00 -1.51973982E+01  7.59869910E+00  7.59869910E+00
 -1.51973982E+01  7.59869910E+00  7.59869910E+00 -1.51973982E+01  7.59869910E+00
  7.59869910E+00 -1.51973982E+01  7.59869910E+00  7.59869910E+00 -1.51973982E+01
  7.59869910E+00  7.59869910E+00 -1.51973982E+01  7.59869910E+00  7.59869910E+00
 -1.51973982E+01  7.59869910E+00  7.59869910E+00 -1.51973982E+01  7.59869910E+00
  7.59869910E+00 -1.51973982E+01  7.59869910E+00  7.59869910E+00 -1.51973982E+01
  7.59869910E+00  7.59869910E+00 -1.51973982E+01  7.59869910E+00  7.59869910E+00
 -1.51973982E+01  7.59869910E+00  7.59869910E+00 -1.51973982E+01  7.59869910E+00
  7.59869910E+00 -1.51973982E+01  7.59869910E+00  7.59869910E+00 -1.51973982E+01
  7.59869910E+00  7.59869910E+00 -1.51973982E+01  7.59869910E+00  7.59869910E+00
 -1.51973982E+01  7.59869910E+00  7.59869910E+00 -1.51973982E+01  7.59869910E+00
  7.59869910E+00 -1.51973982E+01  7.59869910E+00  7.59869910E+00 -1.51973982E+01
  7.59869910E+00  7.59869910E+00 -1.51973982E+01  7.59869910E+00  7.59869910E+00
 -1.51973982E+01  7.59869910E+00  7.59869910E+00 -1.51973982E+01  7.59869910E+00
  7.59869910E+00 -1.51973982E+01  7.59869910E+00  7.59869910E+00 -1.51973982E+01
  7.59869910E+00  7.59869910E+00 -1.51973982E+01  7.59869910E+00  7.59869910E+00
 -1.51973982E+01  7.59869910E+00  7.59869910E+00 -1.51973982E+01  7.59869910E+00
  7.59869910E+00 -1.51973982E+01  7.59869910E+00  7.59869910E+00 -1.51973982E+01
  7.59869910E+00  7.59869910E+00 -1.51973982E+01  7.59869910E+00  7.59869910E+00
 -1.51973982E+01  7.59869910E+00  7.59869910E+00 -1.51973982E+01  7.59869910E+00
  7.59869910E+00 -1.51973982E+01  7.59869910E+00  7.59869910E+00 -1.51973982E+01
  7.59869910E+00  7.59869910E+00 -1.51973982E+01  7.59869910E+00  7.59869910E+00
 -1.51973982E+01  7.59869910E+00  7.59869910E+00 -1.51973982E+01  7.59869910E+00
  7.59869910E+00 -1.51973982E+01  7.59869910E+00  7.59869910E+00 -1.51973982E+01
  7.59869910E+00  7.59869910E+00 -1.51973982E+01  7.59869910E+00  7.59869910E+00
 -1.51973982E+01  7.59869910E+00  7.59869910E+00 -1.51973982E+01  7.59869910E+00
  7.59869910E+00 -1.51973982E+01  7.59869910E+00  7.59869910E+00 -1.51973982E+01
  7.59869910E+00  7.59869910E+00 -1.51973982E+01  7.59869910E+00  7.59869910E+00
 -1.51973982E+01  7.59869910E+00  7.59869910E+00 -1.51973982E+01  7.59869910E+00
  7.59869910E+00 -1.51973982E+01  7.59869910E+00  7.59869910E+00 -1.51973982E+01
  7.59869910E+00  7.59869910E+00 -1.51973982E+01  7.59869910E+00  7.59869910E+00
 -1.51973982E+01  7.59869910E+00  7.59869910E+00 -1.51973982E+01  7.59869910E+00
  7.59869910E+00 -1.51973982E+01  7.59869910E+00  7.59869910E+00 -1.51973982E+01
  7.59869910E+00  7.59869910E+00 -1.51973982E+01  7.59869910E+00  7.59869910E+00
 -1.51973982E+01  7.59869910E+00  7.59869910E+00 -1.51973982E+01  7.59869910E+00
  7.59869910E+00 -1.51973982E+01  7.59869910E+00  7.59869910E+00 -1.51973982E+01
  7.59869910E+00  7.59869910E+00 -1.51973982E+01  7.59869910E+00  7.59869910E+00
 -1.51973982E+01  7.59869910E+00  7.59869910E+00 -1.51973982E+01  7.59869910E+00
  7.59869910E+00 -1.51973982E+01  7.59869910E+00  7.59869910E+00 -1.51973982E+01
  7.59869910E+00  7.59869910E+00 -1.51973982E+01  7.59869910E+00  7.59869910E+00
 -1.51973982E+01  7.59869910E+00  7.59869910E+00 -1.51973982E+01  7.59869910E+00
  7.59869910E+00 -1.51973982E+01  7.59869910E+00  7.59869910E+00 -1.51973982E+01
  7.59869910E+00  7.59869910E+00 -1.51973982E+01  7.59869910E+00  7.59869910E+00
 -1.51973982E+01  7.59869910E+00  7.59869910E+00 -1.51973982E+01  7.59869910E+00
  7.59869910E+00 -1.51973982E+01  7.59869910E+00  7.59869910E+00 -1.51973982E+01
  7.59869910E+00  7.59869910E+00 -1.51973982E+01  7.59869910E+00  7.59869910E+00
 -1.51973982E+01  7.59869910E+00  7.59869910E+00 -1.51973982E+01  7.59869910E+00
  7.59869910E+00 -1.51973982E+01  7.59869910E+00  7.59869910E+00 -1.51973982E+01
  7.59869910E+00  7.59869910E+00 -1.51973982E+01  7.59869910E+00  7.59869910E+00
 -1.51973982E+01  7.59869910E+00  7.59869910E+00 -1.51973982E+01  7.59869910E+00
  7.59869910E+00 -1.51973982E+01  7.59869910E+00  7.59869910E+00 -1.51973982E+01
  7.59869910E+00  7.59869910E+00 -1.51973982E+01  7.59869910E+00  7.59869910E+00
 -1.51973982E+01  7.59869910E+00  7.59869910E+00 -1.51973982E+01  7.59869910E+00
  7.59869910E+00 -1.51973982E+01  7.59869910E+00  7.59869910E+00 -1.51973982E+01
  7.59869910E+00  7.59869910E+00 -1.51973982E+01  7.59869910E+00  7.59869910E+00
 -1.51973982E+01  7.59869910E+00  7.59869910E+00 -1.51973982E+01  7.59869910E+00
  7.59869910E+00 -1.51973982E+01  7.59869910E+00  7.59869910E+00 -1.51973982E+01
  7.59869910E+00  7.59869910E+00 -1.51973982E+01  7.59869910E+00  7.59869910E+00
 -1.51973982E+01  7.59869910E+00  7.59869910E+00 -1.51973982E+01  7.59869910E+00
  7.59869910E+00 -1.51973982E+01  7.59869910E+00  7.59869910E+00 -1.51973982E+01
  7.59869910E+00  7.59869910E+00 -1.51973982E+01  7.59869910E+00  7.59869910E+00
 -1.51973982E+01  7.59869910E+00  7.59869910E+00 -1.51973982E+01  7.59869910E+00
  7.59869910E+00 -1.51973982E+01  7.59869910E+00  7.59869910E+00 -1.51973982E+01
  7.59869910E+00  7.59869910E+00 -1.51973982E+01  7.59869910E+00  7.59869910E+00
 -1.51973982E+01  7.59869910E+00  7.59869910E+00 -1.51973982E+01  7.59869910E+00
  7.59869910E+00 -1.51973982E+01  7.59869910E+00  7.59869910E+00 -1.51973982E+01
  7.59869910E+00  7.59869910E+00 -1.51973982E+01  7.59869910E+00  7.59869910E+00
 -1.51973982E+01  7.59869910E+00  7.59869910E+00 -1.51973982E+01  7.59869910E+00
  7.59869910E+00 -1.51973982E+01  7.59869910E+00  7.59869910E+00 -1.51973982E+01
  7.59869910E+00  7.59869910E+00 -1.51973982E+01  7.59869910E+00  7.59869910E+00
 -1.51973982E+01  7.59869910E+00  7.59869910E+00 -1.51973982E+01  7.59869910E+00
  7.59869910E+00 -1.51973982E+01  7.59869910E+00  7.59869910E+00 -1.51973982E+01
  7.59869910E+00  7.59869910E+00 -1.51973982E+01  7.59869910E+00  7.59869910E+00
 -1.51973982E+01  7.59869910E+00  7.59869910E+00 -1.51973982E+01  7.59869910E+00
  7.59869910E+00 -1.51973982E+01  7.59869910E+00  7.59869910E+00 -1.51973982E+01
  7.59869910E+00  7.59869910E+00 -1.51973982E+01  7.59869910E+00  7.59869910E+00
 -1.51973982E+01  7.59869910E+00  7.59869910E+00 -1.51973982E+01  7.59869910E+00
  7.59869910E+00 -1.51973982E+01  7.59869910E+00  7.59869910E+00 -1.51973982E+01
  7.59869910E+00  7.59869910E+00 -1.51973982E+01  7.59869910E+00  7.59869910E+00
 -1.51973982E+01  7.59869910E+00  7.59869910E+00 -1.51973982E+01  7.59869910E+00
  7.59869910E+00 -1.51973982E+01  7.59869910E+00  7.59869910E+00 -1.51973982E+01
  7.59869910E+00  7.59869910E+00 -1.51973982E+01  7.59869910E+00  7.59869910E+00
 -1.51973982E+01  7.59869910E+00  7.59869910E+00 -1.51973982E+01  7.59869910E+00
  7.59869910E+00 -1.51973982E+01  7.59869910E+00  7.59869910E+00 -1.51973982E+01
  7.59869910E+00  7.59869910E+00 -1.51973982E+01  7.59869910E+00  7.59869910E+00
 -1.51973982E+01  7.59869910E+00  7.59869910E+00 -1.51973982E+01  7.59869910E+00
  7.59869910E+00 -1.51973982E+01  7.59869910E+00  7.59869910E+00 -1.51973982E+01
  7.59869910E+00  7.59869910E+00 -1.51973982E+01  7.59869910E+00  7.59869910E+00
 -1.51973982E+01  7.59869910E+00  7.59869910E+00 -1.51973982E+01  7.59869910E+00
  7.59869910E+00 -1.51973982E+01  7.59869910E+00  7.59869910E+00 -1.51973982E+01
  7.59869910E+00  7.59869910E+00 -1.51973982E+01  7.59869910E+00  7.59869910E+00
 -1.51973982E+01  7.59869910E+00  7.59869910E+00 -1.51973982E+01  7.59869910E+00
  7.59869910E+00 -1.51973982E+01  7.59869910E+00  7.59869910E+00 -1.51973982E+01
  7.59869910E+00  7.59869910E+00 -1.51973982E+01  7.59869910E+00  7.59869910E+00
 -1.51973982E+01  7.59869910E+00  7.59869910E+00 -1.51973982E+01  7.59869910E+00
  7.59869910E+00 -1.51973982E+01  7.59869910E+00  7.59869910E+00 -1.51973982E+01
  7.59869910E+00  7.59869910E+00 -1.51973982E+01  7.59869910E+00  7.59869910E+00
 -1.51973982E+01  7.59869910E+00  7.59869910E+00 -1.51973982E+01  7.59869910E+00
  7.59869910E+00 -1.51973982E+01  7.59869910E+00  7.59869910E+00 -1.51973982E+01
  7.59869910E+00  7.59869910E+00 -1.51973982E+01  7.59869910E+00  7.59869910E+00
 -1.51973982E+01  7.59869910E+00  7.59869910E+00 -1.51973982E+01  7.59869910E+00
  7.59869910E+00 -1.51973982E+01  7.59869910E+00  7.59869910E+00 -1.51973982E+01
  7.59869910E+00  7.59869910E+00 -1.51973982E+01  7.59869910E+00  7.59869910E+00
 -1.51973982E+01  7.59869910E+00  7.59869910E+00 -1.51973982E+01  7.59869910E+00
  7.59869910E+00 -1.51973982E+01  7.59869910E+00  7.59869910E+00 -1.51973982E+01
  7.59869910E+00  7.59869910E+00 -1.51973982E+01  7.59869910E+00  7.59869910E+00
 -1.51973982E+01  7.59869910E+00  7.59869910E+00 -1.51973982E+01  7.59869910E+00
  7.59869910E+00 -1.51973982E+01  7.59869910E+00  7.59869910E+00 -1.51973982E+01
  7.59869910E+00  7.59869910E+00 -1.51973982E+01  7.59869910E+00  7.59869910E+00
 -1.51973982E+01  7.59869910E+00  7.59869910E+00 -1.51973982E+01  7.59869910E+00
  7.59869910E+00 -1.51973982E+01  7.59869910E+00  7.59869910E+00 -1.51973982E+01
  7.59869910E+00  7.59869910E+00 -1.51973982E+01  7.59869910E+00  7.59869910E+00
 -1.51973982E+01  7.59869910E+00  7.59869910E+00 -1.51973982E+01  7.59869910E+00
  7.59869910E+00 -1.51973982E+01  7.59869910E+00  7.59869910E+00 -1.51973982E+01
  7.59869910E+00  7.59869910E+00 -1.51973982E+01  7.59869910E+00  7.59869910E+00
 -1.51973982E+01  7.59869910E+00  7.59869910E+00 -1.51973982E+01  7.59869910E+00
  7.59869910E+00 -1.51973982E+01  7.59869910E+00  7.59869910E+00 -1.51973982E+01
  7.59869910E+00  7.59869910E+00 -1.51973982E+01  7.59869910E+00  7.59869910E+00
 -1.51973982E+01  7.59869910E+00  7.59869910E+00 -1.51973982E+01  7.59869910E+00
  7.59869910E+00 -1.51973982E+01  7.59869910E+00  7.59869910E+00 -1.51973982E+01
  7.59869910E+00  7.59869910E+00 -1.51973982E+01  7.59869910E+00  7.59869910E+00
 -1.51973982E+01  7.59869910E+00  7.59869910E+00 -1.51973982E+01  7.59869910E+00
  7.59869910E+00 -1.51973982E+01  7.59869910E+00  7.59869910E+00 -1.51973982E+01
  7.59869910E+00  7.59869910E+00 -1.51973982E+01  7.59869910E+00  7.59869910E+00
 -1.51973982E+01  7.59869910E+00  7.59869910E+00 -1.51973982E+01  7.59869910E+00
  7.59869910E+00 -1.51973982E+01  7.59869910E+00  7.59869910E+00 -1.51973982E+01
  7.59869910E+00  7.59869910E+00 -1.51973982E+01  7.59869910E+00  7.59869910E+00
 -1.51973982E+01  7.59869910E+00  7.59869910E+00 -1.51973982E+01  7.59869910E+00
  7.59869910E+00 -1.51973982E+01  7.59869910E+00  7.59869910E+00 -1.51973982E+01
  7.59869910E+00  7.59869910E+00 -1.51973982E+01  7.59869910E+00  7.59869910E+00
 -1.51973982E+01  7.59869910E+00  7.59869910E+00 -1.51973982E+01  7.59869910E+00
  7.59869910E+00 -1.51973982E+01  7.59869910E+00  7.59869910E+00 -1.51973982E+01
  7.59869910E+00  7.59869910E+00 -1.51973982E+01  7.59869910E+00  7.59869910E+00
 -1.51973982E+01  7.59869910E+00  7.59869910E+00 -1.51973982E+01  7.59869910E+00
  7.59869910E+00 -1.51973982E+01  7.59869910E+00  7.59869910E+00 -1.51973982E+01
  7.59869910E+00  7.59869910E+00 -1.51973982E+01  7.59869910E+00  7.59869910E+00
 -1.51973982E+01  7.59869910E+00  7.59869910E+00 -1.51973982E+01  7.59869910E+00
  7.59869910E+00 -1.51973982E+01  7.59869910E+00  7.59869910E+00 -1.51973982E+01
  7.59869910E+00  7.59869910E+00 -1.51973982E+01  7.59869910E+00  7.59869910E+00
 -1.51973982E+01  7.59869910E+00  7.59869910E+00 -1.51973982E+01  7.59869910E+00
  7.59869910E+00 -1.51973982E+01  7.59869910E+00  7.59869910E+00 -1.51973982E+01
  7.59869910E+00  7.59869910E+00 -1.51973982E+01  7.59869910E+00  7.59869910E+00
 -1.51973982E+01  7.59869910E+00  7.59869910E+00 -1.51973982E+01  7.59869910E+00
  7.59869910E+00 -1.51973982E+01  7.59869910E+00  7.59869910E+00 -1.51973982E+01
  7.59869910E+00  7.59869910E+00 -1.51973982E+01  7.59869910E+00  7.59869910E+00
 -1.51973982E+01  7.59869910E+00  7.59869910E+00 -1.51973982E+01  7.59869910E+00
  7.59869910E+00 -1.51973982E+01  7.59869910E+00  7.59869910E+00 -1.51973982E+01
  7.59869910E+00  7.59869910E+00 -1.51973982E+01  7.59869910E+00  7.59869910E+00
 -1.51973982E+01  7.59869910E+00  7.59869910E+00 -1.51973982E+01  7.59869910E+00
  7.59869910E+00 -1.51973982E+01  7.59869910E+00  7.59869910E+00 -1.51973982E+01
  7.59869910E+00  7.59869910E+00 -1.51973982E+01  7.59869910E+00  7.59869910E+00
 -1.51973982E+01  7.59869910E+00  7.59869910E+00 -1.51973982E+01  7.59869910E+00
  7.59869910E+00 -1.51973982E+01  7.59869910E+00  7.59869910E+00 -1.51973982E+01
  7.59869910E+00  7.59869910E+00 -1.51973982E+01  7.59869910E+00  7.59869910E+00
 -1.51973982E+01  7.59869910E+00  7.59869910E+00 -1.51973982E+01  7.59869910E+00
  7.59869910E+00 -1.51973982E+01  7.59869910E+00  7.59869910E+00 -1.51973982E+01
  7.59869910E+00  7.59869910E+00 -1.51973982E+01  7.59869910E+00  7.59869910E+00
 -1.51973982E+01  7.59869910E+00  7.59869910E+00 -1.51973982E+01  7.59869910E+00
  7.59869910E+00 -1.51973982E+01  7.59869910E+00  7.59869910E+00 -1.51973982E+01
  7.59869910E+00  7.59869910E+00 -1.51973982E+01  7.59869910E+00  7.59869910E+00
 -1.51973982E+01  7.59869910E+00  7.59869910E+00 -1.51973982E+01  7.59869910E+00
  7.59869910E+00 -1.51973982E+01  7.59869910E+00  7.59869910E+00 -1.51973982E+01
  7.59869910E+00  7.59869910E+00 -1.51973982E+01  7.59869910E+00  7.59869910E+00
 -1.51973982E+01  7.59869910E+00  7.59869910E+00 -1.51973982E+01  7.59869910E+00
  7.59869910E+00 -1.51973982E+01  7.59869910E+00  7.59869910E+00 -1.51973982E+01
  7.59869910E+00  7.59869910E+00 -1.51973982E+01  7.59869910E+00  7.59869910E+00
 -1.51973982E+01  7.59869910E+00  7.59869910E+00 -1.51973982E+01  7.59869910E+00
  7.59869910E+00 -1.51973982E+01  7.59869910E+00  7.59869910E+00 -1.51973982E+01
  7.59869910E+00  7.59869910E+00 -1.51973982E+01  7.59869910E+00  7.59869910E+00
 -1.51973982E+01  7.59869910E+00  7.59869910E+00 -1.51973982E+01  7.59869910E+00
  7.59869910E+00 -1.51973982E+01  7.59869910E+00  7.59869910E+00 -1.51973982E+01
  7.59869910E+00  7.59869910E+00 -1.51973982E+01  7.59869910E+00  7.59869910E+00
 -1.51973982E+01  7.59869910E+00  7.59869910E+00 -1.51973982E+01  7.59869910E+00
  7.59869910E+00 -1.51973982E+01  7.59869910E+00  7.59869910E+00 -1.51973982E+01
  7.59869910E+00  7.59869910E+00 -1.51973982E+01  7.59869910E+00  7.59869910E+00
 -1.51973982E+01  7.59869910E+00  7.59869910E+00 -1.51973982E+01  7.59869910E+00
  7.59869910E+00 -1.51973982E+01  7.59869910E+00  7.59869910E+00 -1.51973982E+01
  7.59869910E+00  7.59869910E+00 -1.51973982E+01  7.59869910E+00  7.59869910E+00
 -1.51973982E+01  7.59869910E+00  7.59869910E+00 -1.51973982E+01  7.59869910E+00
  7.59869910E+00 -1.51973982E+01  7.59869910E+00  7.59869910E+00 -1.51973982E+01
  7.59869910E+00  7.59869910E+00 -1.51973982E+01  7.59869910E+00  7.59869910E+00
 -1.51973982E+01  7.59869910E+00  7.59869910E+00 -1.51973982E+01  7.59869910E+00
  7.59869910E+00 -1.51973982E+01  7.59869910E+00  7.59869910E+00 -1.51973982E+01
  7.59869910E+00  7.59869910E+00 -1.51973982E+01  7.59869910E+00  7.59869910E+00
 -1.51973982E+01  7.59869910E+00  7.59869910E+00 -1.51973982E+01  7.59869910E+00
  7.59869910E+00 -1.51973982E+01  7.59869910E+00  7.59869910E+00 -1.51973982E+01
  7.59869910E+00  7.59869910E+00 -1.51973982E+01  7.59869910E+00  7.59869910E+00
 -1.51973982E+01  7.59869910E+00  7.59869910E+00 -1.51973982E+01  7.59869910E+00
  7.59869910E+00 -1.51973982E+01  7.59869910E+00  7.59869910E+00 -1.51973982E+01
  7.59869910E+00  7.59869910E+00 -1.51973982E+01  7.59869910E+00  7.59869910E+00
 -1.51973982E+01  7.59869910E+00  7.59869910E+00 -1.51973982E+01  7.59869910E+00
  7.59869910E+00 -1.51973982E+01  7.59869910E+00  7.59869910E+00 -1.51973982E+01
  7.59869910E+00  7.59869910E+00 -1.51973982E+01  7.59869910E+00  7.59869910E+00
 -1.51973982E+01  7.59869910E+00  7.59869910E+00 -1.51973982E+01  7.59869910E+00
  7.59869910E+00 -1.51973982E+01  7.59869910E+00  7.59869910E+00 -1.51973982E+01
  7.59869910E+00  7.59869910E+00 -1.51973982E+01  7.59869910E+00  7.59869910E+00
 -1.51973982E+01  7.59869910E+00  7.59869910E+00 -1.51973982E+01  7.59869910E+00
  7.59869910E+00 -1.51973982E+01  7.59869910E+00  7.59869910E+00 -1.51973982E+01
  7.59869910E+00  7.59869910E+00 -1.51973982E+01  7.59869910E+00  7.59869910E+00
 -1.51973982E+01  7.59869910E+00  7.59869910E+00 -1.51973982E+01  7.59869910E+00
  7.59869910E+00 -1.51973982E+01  7.59869910E+00  7.59869910E+00 -1.51973982E+01
  7.59869910E+00  7.59869910E+00 -1.51973982E+01  7.59869910E+00  7.59869910E+00
 -1.51973982E+01  7.59869910E+00  7.59869910E+00 -1.51973982E+01  7.59869910E+00
  7.59869910E+00 -1.51973982E+01  7.59869910E+00  7.59869910E+00 -1.51973982E+01
  7.59869910E+00  7.59869910E+00 -1.51973982E+01  7.59869910E+00  7.59869910E+00
 -1.51973982E+01  7.59869910E+00  7.59869910E+00 -1.51973982E+01  7.59869910E+00
  7.59869910E+00 -1.51973982E+01  7.59869910E+00  7.59869910E+00 -1.51973982E+01
  7.59869910E+00  7.59869910E+00 -1.51973982E+01  7.59869910E+00  7.59869910E+00
 -1.51973982E+01  7.59869910E+00  7.59869910E+00 -1.51973982E+01  7.59869910E+00
  7.59869910E+00 -1.51973982E+01  7.59869910E+00  7.59869910E+00 -1.51973982E+01
  7.59869910E+00  7.59869910E+00 -1.51973982E+01  7.59869910E+00  7.59869910E+00
 -1.51973982E+01  7.59869910E+00  7.59869910E+00 -1.51973982E+01  7.59869910E+00
  7.59869910E+00 -1.51973982E+01  7.59869910E+00  7.59869910E+00 -1.51973982E+01
  7.59869910E+00  7.59869910E+00 -1.51973982E+01  7.59869910E+00  7.59869910E+00
 -1.51973982E+01  7.59869910E+00  7.59869910E+00 -1.51973982E+01  7.59869910E+00
  7.59869910E+00 -1.51973982E+01  7.59869910E+00  7.59869910E+00 -1.51973982E+01
  7.59869910E+00  7.59869910E+00 -1.51973982E+01  7.59869910E+00  7.59869910E+00
 -1.51973982E+01  7.59869910E+00  7.59869910E+00 -1.51973982E+01  7.59869910E+00
  7.59869910E+00 -1.51973982E+01  7.59869910E+00  7.59869910E+00 -1.51973982E+01
  7.59869910E+00  7.59869910E+00 -1.51973982E+01  7.59869910E+00  7.59869910E+00
 -1.51973982E+01  7.59869910E+00  7.59869910E+00 -1.51973982E+01  7.59869910E+00
  7.59869910E+00 -1.51973982E+01  7.59869910E+00  7.59869910E+00 -1.51973982E+01
  7.59869910E+00  7.59869910E+00 -1.51973982E+01  7.59869910E+00  7.59869910E+00
 -1.51973982E+01  7.59869910E+00  7.59869910E+00 -1.51973982E+01  7.59869910E+00
  7.59869910E+00 -1.51973982E+01  7.59869910E+00  7.59869910E+00 -1.51973982E+01
  7.59869910E+00  7.59869910E+00 -1.51973982E+01  7.59869910E+00  7.59869910E+00
 -1.51973982E+01  7.59869910E+00  7.59869910E+00 -1.51973982E+01  7.59869910E+00
  7.59869910E+00 -1.51973982E+01  7.59869910E+00  7.59869910E+00 -1.51973982E+01
  7.59869910E+00  7.59869910E+00 -1.51973982E+01  7.59869910E+00  7.59869910E+00
 -1.51973982E+01  7.59869910E+00  7.59869910E+00 -1.51973982E+01  7.59869910E+00
  7.59869910E+00 -1.51973982E+01  7.59869910E+00  7.59869910E+00 -1.51973982E+01
  7.59869910E+00  7.59869910E+00 -1.51973982E+01  7.59869910E+00  7.59869910E+00
 -1.51973982E+01  7.59869910E+00  7.59869910E+00 -1.51973982E+01  7.59869910E+00
  7.59869910E+00 -1.51973982E+01  7.59869910E+00  7.59869910E+00 -1.51973982E+01
  7.59869910E+00  7.59869910E+00 -1.51973982E+01  7.59869910E+00  7.59869910E+00
 -1.51973982E+01  7.59869910E+00  7.59869910E+00 -1.51973982E+01  7.59869910E+00
  7.59869910E+00 -1.51973982E+01  7.59869910E+00  7.59869910E+00 -1.51973982E+01
  7.59869910E+00  7.59869910E+00 -1.51973982E+01  7.59869910E+00  7.59869910E+00
 -1.51973982E+01  7.59869910E+00  7.59869910E+00 -1.51973982E+01  7.59869910E+00
  7.59869910E+00 -1.51973982E+01  7.59869910E+00  7.59869910E+00 -1.51973982E+01
  7.59869910E+00  7.59869910E+00 -1.51973982E+01  7.59869910E+00  7.59869910E+00
 -1.51973982E+01  7.59869910E+00  7.59869910E+00 -1.51973982E+01  7.59869910E+00
  7.59869910E+00 -1.51973982E+01  7.59869910E+00  7.59869910E+00 -1.51973982E+01
  7.59869910E+00  7.59869910E+00 -1.51973982E+01  7.59869910E+00  7.59869910E+00
 -1.51973982E+01  7.59869910E+00  7.59869910E+00 -1.51973982E+01  7.59869910E+00
  7.59869910E+00 -1.51973982E+01  7.59869910E+00  7.59869910E+00 -1.51973982E+01
  7.59869910E+00  7.59869910E+00 -1.51973982E+01  7.59869910E+00  7.59869910E+00
 -1.51973982E+01  7.59869910E+00  7.59869910E+00 -1.51973982E+01  7.59869910E+00
  7.59869910E+00 -1.51973982E+01  7.59869910E+00  7.59869910E+00 -1.51973982E+01
  7.59869910E+00  7.59869910E+00 -1.51973982E+01  7.59869910E+00  7.59869910E+00
 -1.51973982E+01  7.59869910E+00  7.59869910E+00 -1.51973982E+01  7.59869910E+00
  7.59869910E+00 -1.51973982E+01  7.59869910E+00  7.59869910E+00 -1.51973982E+01
  7.59869910E+00  7.59869910E+00 -1.51973982E+01  7.59869910E+00  7.59869910E+00
 -1.51973982E+01  7.59869910E+00  7.59869910E+00 -1.51973982E+01  7.59869910E+00
  7.59869910E+00 -1.51973982E+01  7.59869910E+00  7.59869910E+00 -1.51973982E+01
  7.59869910E+00  7.59869910E+00 -1.51973982E+01  7.59869910E+00  7.59869910E+00
 -1.51973982E+01  7.59869910E+00  7.59869910E+00 -1.51973982E+01  7.59869910E+00
  7.59869910E+00 -1.51973982E+01  7.59869910E+00  7.59869910E+00 -1.51973982E+01
  7.59869910E+00  7.59869910E+00 -1.51973982E+01  7.59869910E+00  7.59869910E+00
 -1.51973982E+01  7.59869910E+00  7.59869910E+00 -1.51973982E+01  7.59869910E+00
  7.59869910E+00 -1.51973982E+01  7.59869910E+00  7.59869910E+00 -1.51973982E+01
  7.59869910E+00  7.59869910E+00 -1.51973982E+01  7.59869910E+00  7.59869910E+00
 -1.51973982E+01  7.59869910E+00  7.59869910E+00 -1.51973982E+01  7.59869910E+00
  7.59869910E+00 -1.51973982E+01  7.59869910E+00  7.59869910E+00 -1.51973982E+01
  7.59869910E+00  7.59869910E+00 -1.51973982E+01  7.59869910E+00  7.59869910E+00
 -1.51973982E+01  7.59869910E+00  7.59869910E+00 -1.51973982E+01  7.59869910E+00
  7.59869910E+00 -1.51973982E+01  7.59869910E+00  7.59869910E+00 -1.51973982E+01
  7.59869910E+00  7.59869910E+00 -1.51973982E+01  7.59869910E+00  7.59869910E+00
 -1.51973982E+01  7.59869910E+00  7.59869910E+00 -1.51973982E+01  7.59869910E+00
  7.59869910E+00 -1.51973982E+01  7.59869910E+00  7.59869910E+00 -1.51973982E+01
  7.59869910E+00  7.59869910E+00 -1.51973982E+01  7.59869910E+00  7.59869910E+00
 -1.51973982E+01  7.59869910E+00  7.59869910E+00 -1.51973982E+01  7.59869910E+00
  7.59869910E+00 -1.51973982E+01  7.59869910E+00  7.59869910E+00 -1.51973982E+01
  7.59869910E+00  7.59869910E+00 -1.51973982E+01  7.59869910E+00  7.59869910E+00
 -1.51973982E+01  7.59869910E+00  7.59869910E+00 -1.51973982E+01  7.59869910E+00
  7.59869910E+00 -1.51973982E+01  7.59869910E+00  7.59869910E+00 -1.51973982E+01
  7.59869910E+00  7.59869910E+00 -1.51973982E+01  7.59869910E+00  7.59869910E+00
 -1.51973982E+01  7.59869910E+00  7.59869910E+00 -1.51973982E+01  7.59869910E+00
  7.59869910E+00 -1.51973982E+01  7.59869910E+00  7.59869910E+00 -1.51973982E+01
  7.59869910E+00  7.59869910E+00 -1.51973982E+01  7.59869910E+00  7.59869910E+00
 -1.51973982E+01  7.59869910E+00  7.59869910E+00 -1.51973982E+01  7.59869910E+00
  7.59869910E+00 -1.51973982E+01  7.59869910E+00  7.59869910E+00 -1.51973982E+01
  7.59869910E+00  7.59869910E+00 -1.51973982E+01  7.59869910E+00  7.59869910E+00
 -1.51973982E+01  7.59869910E+00  7.59869910E+00 -1.51973982E+01  7.59869910E+00
  7.59869910E+00 -1.51973982E+01  7.59869910E+00  7.59869910E+00 -1.51973982E+01
  7.59869910E+00  7.59869910E+00 -1.51973982E+01  7.59869910E+00  7.59869910E+00
 -1.51973982E+01  7.59869910E+00  7.59869910E+00 -1.51973982E+01  7.59869910E+00
  7.59869910E+00 -1.51973982E+01  7.59869910E+00  7.59869910E+00 -1.51973982E+01
  7.59869910E+00  7.59869910E+00 -1.51973982E+01  7.59869910E+00  7.59869910E+00
 -1.51973982E+01  7.59869910E+00  7.59869910E+00 -1.51973982E+01  7.59869910E+00
  7.59869910E+00 -1.51973982E+01  7.59869910E+00  7.59869910E+00 -1.51973982E+01
  7.59869910E+00  7.59869910E+00 -1.51973982E+01  7.59869910E+00  7.59869910E+00
 -1.51973982E+01  7.59869910E+00  7.59869910E+00 -1.51973982E+01  7.59869910E+00
  7.59869910E+00 -1.51973982E+01  7.59869910E+00  7.59869910E+00 -1.51973982E+01
  7.59869910E+00  7.59869910E+00 -1.51973982E+01  7.59869910E+00  7.59869910E+00
 -1.51973982E+01  7.59869910E+00  7.59869910E+00 -1.51973982E+01  7.59869910E+00
  7.59869910E+00 -1.51973982E+01  7.59869910E+00  7.59869910E+00 -1.51973982E+01
  7.59869910E+00  7.59869910E+00 -1.51973982E+01  7.59869910E+00  7.59869910E+00
 -1.51973982E+01  7.59869910E+00  7.59869910E+00 -1.51973982E+01  7.59869910E+00
  7.59869910E+00 -1.51973982E+01  7.59869910E+00  7.59869910E+00 -1.51973982E+01
  7.59869910E+00  7.59869910E+00 -1.51973982E+01  7.59869910E+00  7.59869910E+00
 -1.51973982E+01  7.59869910E+00  7.59869910E+00 -1.51973982E+01  7.59869910E+00
  7.59869910E+00 -1.51973982E+01  7.59869910E+00  7.59869910E+00 -1.51973982E+01
  7.59869910E+00  7.59869910E+00 -1.51973982E+01  7.59869910E+00  7.59869910E+00
 -1.51973982E+01  7.59869910E+00  7.59869910E+00 -1.51973982E+01  7.59869910E+00
  7.59869910E+00 -1.51973982E+01  7.59869910E+00  7.59869910E+00 -1.51973982E+01
  7.59869910E+00  7.59869910E+00 -1.51973982E+01  7.59869910E+00  7.59869910E+00
 -1.51973982E+01  7.59869910E+00  7.59869910E+00 -1.51973982E+01  7.59869910E+00
  7.59869910E+00 -1.51973982E+01  7.59869910E+00  7.59869910E+00 -1.51973982E+01
  7.59869910E+00  7.59869910E+00 -1.51973982E+01  7.59869910E+00  7.59869910E+00
 -1.51973982E+01  7.59869910E+00  7.59869910E+00 -1.51973982E+01  7.59869910E+00
  7.59869910E+00 -1.51973982E+01  7.59869910E+00  7.59869910E+00 -1.51973982E+01
  7.59869910E+00  7.59869910E+00 -1.51973982E+01  7.59869910E+00  7.59869910E+00
 -1.51973982E+01  7.59869910E+00  7.59869910E+00 -1.51973982E+01  7.59869910E+00
  7.59869910E+00 -1.51973982E+01  7.59869910E+00  7.59869910E+00 -1.51973982E+01
  7.59869910E+00  7.59869910E+00 -1.51973982E+01  7.59869910E+00  7.59869910E+00
 -1.51973982E+01  7.59869910E+00  7.59869910E+00 -1.51973982E+01  7.59869910E+00
  7.59869910E+00 -1.51973982E+01  7.59869910E+00  7.59869910E+00 -1.51973982E+01
  7.59869910E+00  7.59869910E+00 -1.51973982E+01  7.59869910E+00  7.59869910E+00
 -1.51973982E+01  7.59869910E+00  7.59869910E+00 -1.51973982E+01  7.59869910E+00
  7.59869910E+00 -1.51973982E+01  7.59869910E+00  7.59869910E+00 -1.51973982E+01
  7.59869910E+00  7.59869910E+00 -1.51973982E+01  7.59869910E+00  7.59869910E+00
 -1.51973982E+01  7.59869910E+00  7.59869910E+00 -1.51973982E+01  7.59869910E+00
  7.59869910E+00 -1.51973982E+01  7.59869910E+00  7.59869910E+00 -1.51973982E+01
  7.59869910E+00  7.59869910E+00 -1.51973982E+01  7.59869910E+00  7.59869910E+00
 -1.51973982E+01  7.59869910E+00  7.59869910E+00 -1.51973982E+01  7.59869910E+00
  7.59869910E+00 -1.51973982E+01  7.59869910E+00  7.59869910E+00 -1.51973982E+01
  7.59869910E+00  7.59869910E+00 -1.51973982E+01  7.59869910E+00  7.59869910E+00
 -1.51973982E+01  7.59869910E+00  7.59869910E+00 -1.51973982E+01  7.59869910E+00
  7.59869910E+00 -1.51973982E+01  7.59869910E+00  7.59869910E+00 -1.51973982E+01
  7.59869910E+00  7.59869910E+00 -1.51973982E+01  7.59869910E+00  7.59869910E+00
 -1.51973982E+01  7.59869910E+00  7.59869910E+00 -1.51973982E+01  7.59869910E+00
  7.59869910E+00 -1.51973982E+01  7.59869910E+00  7.59869910E+00 -1.51973982E+01
  7.59869910E+00  7.59869910E+00 -1.51973982E+01  7.59869910E+00  7.59869910E+00
 -1.51973982E+01  7.59869910E+00  7.59869910E+00 -1.51973982E+01  7.59869910E+00
  7.59869910E+00 -1.51973982E+01  7.59869910E+00  7.59869910E+00 -1.51973982E+01
  7.59869910E+00  7.59869910E+00 -1.51973982E+01  7.59869910E+00  7.59869910E+00
 -1.51973982E+01  7.59869910E+00  7.59869910E+00 -1.51973982E+01  7.59869910E+00
  7.59869910E+00 -1.51973982E+01  7.59869910E+00  7.59869910E+00 -1.51973982E+01
  7.59869910E+00  7.59869910E+00 -1.51973982E+01  7.59869910E+00  7.59869910E+00
 -1.51973982E+01  7.59869910E+00  7.59869910E+00 -1.51973982E+01  7.59869910E+00
  7.59869910E+00 -1.51973982E+01  7.59869910E+00  7.59869910E+00 -1.51973982E+01
  7.59869910E+00  7.59869910E+00 -1.51973982E+01  7.59869910E+00  7.59869910E+00
 -1.51973982E+01  7.59869910E+00  7.59869910E+00 -1.51973982E+01  7.59869910E+00
  7.59869910E+00 -1.51973982E+01  7.59869910E+00  7.59869910E+00 -1.51973982E+01
  7.59869910E+00  7.59869910E+00 -1.51973982E+01  7.59869910E+00  7.59869910E+00
 -1.51973982E+01  7.59869910E+00  7.59869910E+00 -1.51973982E+01  7.59869910E+00
  7.59869910E+00 -1.51973982E+01  7.59869910E+00  7.59869910E+00 -1.51973982E+01
  7.59869910E+00  7.59869910E+00 -1.51973982E+01  7.59869910E+00  7.59869910E+00
 -1.51973982E+01  7.59869910E+00  7.59869910E+00 -1.51973982E+01  7.59869910E+00
  7.59869910E+00 -1.51973982E+01  7.59869910E+00  7.59869910E+00 -1.51973982E+01
  7.59869910E+00  7.59869910E+00 -1.51973982E+01  7.59869910E+00  7.59869910E+00
 -1.51973982E+01  7.59869910E+00  7.59869910E+00 -1.51973982E+01  7.59869910E+00
  7.59869910E+00 -1.51973982E+01  7.59869910E+00  7.59869910E+00 -1.51973982E+01
  7.59869910E+00  7.59869910E+00 -1.51973982E+01  7.59869910E+00  7.59869910E+00
 -1.51973982E+01  7.59869910E+00  7.59869910E+00 -1.51973982E+01  7.59869910E+00
  7.59869910E+00 -1.51973982E+01  7.59869910E+00  7.59869910E+00 -1.51973982E+01
  7.59869910E+00  7.59869910E+00 -1.51973982E+01  7.59869910E+00  7.59869910E+00
 -1.51973982E+01  7.59869910E+00  7.59869910E+00 -1.51973982E+01  7.59869910E+00
  7.59869910E+00 -1.51973982E+01  7.59869910E+00  7.59869910E+00 -1.51973982E+01
  7.59869910E+00  7.59869910E+00 -1.51973982E+01  7.59869910E+00  7.59869910E+00
 -1.51973982E+01  7.59869910E+00  7.59869910E+00 -1.51973982E+01  7.59869910E+00
  7.59869910E+00 -1.51973982E+01  7.59869910E+00  7.59869910E+00 -1.51973982E+01
  7.59869910E+00  7.59869910E+00 -1.51973982E+01  7.59869910E+00  7.59869910E+00
 -1.51973982E+01  7.59869910E+00  7.59869910E+00 -1.51973982E+01  7.59869910E+00
  7.59869910E+00 -1.51973982E+01  7.59869910E+00  7.59869910E+00 -1.51973982E+01
  7.59869910E+00  7.59869910E+00 -1.51973982E+01  7.59869910E+00  7.59869910E+00
 -1.51973982E+01  7.59869910E+00  7.59869910E+00 -1.51973982E+01  7.59869910E+00
  7.59869910E+00 -1.51973982E+01  7.59869910E+00  7.59869910E+00 -1.51973982E+01
  7.59869910E+00  7.59869910E+00 -1.51973982E+01  7.59869910E+00  7.59869910E+00
 -1.51973982E+01  7.59869910E+00  7.59869910E+00 -1.51973982E+01  7.59869910E+00
  7.59869910E+00 -1.51973982E+01  7.59869910E+00  7.59869910E+00 -1.51973982E+01
  7.59869910E+00  7.59869910E+00 -1.51973982E+01  7.59869910E+00  7.59869910E+00
 -1.51973982E+01  7.59869910E+00  7.59869910E+00 -1.51973982E+01  7.59869910E+00
  7.59869910E+00 -1.51973982E+01  7.59869910E+00  7.59869910E+00 -1.51973982E+01
  7.59869910E+00  7.59869910E+00 -1.51973982E+01  7.59869910E+00  7.59869910E+00
 -1.51973982E+01  7.59869910E+00  7.59869910E+00 -1.51973982E+01  7.59869910E+00
  7.59869910E+00 -1.51973982E+01  7.59869910E+00  7.59869910E+00 -1.51973982E+01
  7.59869910E+00  7.59869910E+00 -1.51973982E+01  7.59869910E+00  7.59869910E+00
 -1.51973982E+01  7.59869910E+00  7.59869910E+00 -1.51973982E+01  7.59869910E+00
  7.59869910E+00 -1.51973982E+01  7.59869910E+00  7.59869910E+00 -1.51973982E+01
  7.59869910E+00  7.59869910E+00 -1.51973982E+01  7.59869910E+00  7.59869910E+00
 -1.51973982E+01  7.59869910E+00  7.59869910E+00 -1.51973982E+01  7.59869910E+00
  7.59869910E+00 -1.51973982E+01  7.59869910E+00  7.59869910E+00 -1.51973982E+01
  7.59869910E+00  7.59869910E+00 -1.51973982E+01  7.59869910E+00  7.59869910E+00
 -1.51973982E+01  7.59869910E+00  7.59869910E+00 -1.51973982E+01  7.59869910E+00
  7.59869910E+00 -1.51973982E+01  7.59869910E+00  7.59869910E+00 -1.51973982E+01
  7.59869910E+00  7.59869910E+00 -1.51973982E+01  7.59869910E+00  7.59869910E+00
 -1.51973982E+01  7.59869910E+00  7.59869910E+00 -1.51973982E+01  7.59869910E+00
  7.59869910E+00 -1.51973982E+01  7.59869910E+00  7.59869910E+00 -1.51973982E+01
  7.59869910E+00  7.59869910E+00 -1.51973982E+01  7.59869910E+00  7.59869910E+00
 -1.51973982E+01  7.59869910E+00  7.59869910E+00 -1.51973982E+01  7.59869910E+00
  7.59869910E+00 -1.51973982E+01  7.59869910E+00  7.59869910E+00 -1.51973982E+01
  7.59869910E+00  7.59869910E+00 -1.51973982E+01  7.59869910E+00  7.59869910E+00
 -1.51973982E+01  7.59869910E+00  7.59869910E+00 -1.51973982E+01  7.59869910E+00
  7.59869910E+00 -1.51973982E+01  7.59869910E+00  7.59869910E+00 -1.51973982E+01
  7.59869910E+00  7.59869910E+00 -1.51973982E+01  7.59869910E+00  7.59869910E+00
 -1.51973982E+01  7.59869910E+00  7.59869910E+00 -1.51973982E+01  7.59869910E+00
  7.59869910E+00 -1.51973982E+01  7.59869910E+00  7.59869910E+00 -1.51973982E+01
  7.59869910E+00  7.59869910E+00 -1.51973982E+01  7.59869910E+00  7.59869910E+00
 -1.51973982E+01  7.59869910E+00  7.59869910E+00 -1.51973982E+01  7.59869910E+00
  7.59869910E+00 -1.51973982E+01  7.59869910E+00  7.59869910E+00 -1.51973982E+01
  7.59869910E+00  7.59869910E+00 -1.51973982E+01  7.59869910E+00  7.59869910E+00
 -1.51973982E+01  7.59869910E+00  7.59869910E+00 -1.51973982E+01  7.59869910E+00
  7.59869910E+00 -1.51973982E+01  7.59869910E+00  7.59869910E+00 -1.51973982E+01
  7.59869910E+00  7.59869910E+00 -1.51973982E+01  7.59869910E+00  7.59869910E+00
 -1.51973982E+01  7.59869910E+00  7.59869910E+00 -1.51973982E+01  7.59869910E+00
  7.59869910E+00 -1.51973982E+01  7.59869910E+00  7.59869910E+00 -1.51973982E+01
  7.59869910E+00  7.59869910E+00 -1.51973982E+01  7.59869910E+00  7.59869910E+00
 -1.51973982E+01  7.59869910E+00  7.59869910E+00 -1.51973982E+01  7.59869910E+00
  7.59869910E+00 -1.51973982E+01  7.59869910E+00  7.59869910E+00 -1.51973982E+01
  7.59869910E+00  7.59869910E+00 -1.51973982E+01  7.59869910E+00  7.59869910E+00
 -1.51973982E+01  7.59869910E+00  7.59869910E+00 -1.51973982E+01  7.59869910E+00
  7.59869910E+00 -1.51973982E+01  7.59869910E+00  7.59869910E+00 -1.51973982E+01
  7.59869910E+00  7.59869910E+00 -1.51973982E+01  7.59869910E+00  7.59869910E+00
 -1.51973982E+01  7.59869910E+00  7.59869910E+00 -1.51973982E+01  7.59869910E+00
  7.59869910E+00 -1.51973982E+01  7.59869910E+00  7.59869910E+00 -1.51973982E+01
  7.59869910E+00  7.59869910E+00 -1.51973982E+01  7.59869910E+00  7.59869910E+00
 -1.51973982E+01  7.59869910E+00  7.59869910E+00 -1.51973982E+01  7.59869910E+00
  7.59869910E+00 -1.51973982E+01  7.59869910E+00  7.59869910E+00 -1.51973982E+01
  7.59869910E+00  7.59869910E+00 -1.51973982E+01  7.59869910E+00  7.59869910E+00
 -1.51973982E+01  7.59869910E+00  7.59869910E+00 -1.51973982E+01  7.59869910E+00
  7.59869910E+00 -1.51973982E+01  7.59869910E+00  7.59869910E+00 -1.51973982E+01
  7.59869910E+00  7.59869910E+00 -1.51973982E+01  7.59869910E+00  7.59869910E+00
 -1.51973982E+01  7.59869910E+00  7.59869910E+00 -1.51973982E+01  7.59869910E+00
  7.59869910E+00 -1.51973982E+01  7.59869910E+00  7.59869910E+00 -1.51973982E+01
  7.59869910E+00  7.59869910E+00 -1.51973982E+01  7.59869910E+00  7.59869910E+00
 -1.51973982E+01  7.59869910E+00  7.59869910E+00 -1.51973982E+01  7.59869910E+00
  7.59869910E+00 -1.51973982E+01  7.59869910E+00  7.59869910E+00 -1.51973982E+01
  7.59869910E+00  7.59869910E+00 -1.51973982E+01  7.59869910E+00  7.59869910E+00
 -1.51973982E+01  7.59869910E+00  7.59869910E+00 -1.51973982E+01  7.59869910E+00
  7.59869910E+00 -1.51973982E+01  7.59869910E+00  7.59869910E+00 -1.51973982E+01
  7.59869910E+00  7.59869910E+00 -1.51973982E+01  7.59869910E+00  7.59869910E+00
 -1.51973982E+01  7.59869910E+00  7.59869910E+00 -1.51973982E+01  7.59869910E+00
  7.59869910E+00 -1.51973982E+01  7.59869910E+00  7.59869910E+00 -1.51973982E+01
  7.59869910E+00  7.59869910E+00 -1.51973982E+01  7.59869910E+00  7.59869910E+00
 -1.51973982E+01  7.59869910E+00  7.59869910E+00 -1.51973982E+01  7.59869910E+00
  7.59869910E+00 -1.51973982E+01  7.59869910E+00  7.59869910E+00 -1.51973982E+01
  7.59869910E+00  7.59869910E+00 -1.51973982E+01  7.59869910E+00  7.59869910E+00
 -1.51973982E+01  7.59869910E+00  7.59869910E+00 -1.51973982E+01  7.59869910E+00
  7.59869910E+00 -1.51973982E+01  7.59869910E+00  7.59869910E+00 -1.51973982E+01
  7.59869910E+00  7.59869910E+00 -1.51973982E+01  7.59869910E+00  7.59869910E+00
 -1.51973982E+01  7.59869910E+00  7.59869910E+00 -1.51973982E+01  7.59869910E+00
  7.59869910E+00 -1.51973982E+01  7.59869910E+00  7.59869910E+00 -1.51973982E+01
  7.59869910E+00  7.59869910E+00 -1.51973982E+01  7.59869910E+00  7.59869910E+00
 -1.51973982E+01  7.59869910E+00  7.59869910E+00 -1.51973982E+01  7.59869910E+00
  7.59869910E+00 -1.51973982E+01  7.59869910E+00  7.59869910E+00 -1.51973982E+01
  7.59869910E+00  7.59869910E+00 -1.51973982E+01  7.59869910E+00  7.59869910E+00
 -1.51973982E+01  7.59869910E+00  7.59869910E+00 -1.51973982E+01  7.59869910E+00
  7.59869910E+00 -1.51973982E+01  7.59869910E+00  7.59869910E+00 -1.51973982E+01
  7.59869910E+00  7.59869910E+00 -1.51973982E+01  7.59869910E+00  7.59869910E+00
 -1.51973982E+01  7.59869910E+00  7.59869910E+00 -1.51973982E+01  7.59869910E+00
  7.59869910E+00 -1.51973982E+01  7.59869910E+00  7.59869910E+00 -1.51973982E+01
  7.59869910E+00  7.59869910E+00 -1.51973982E+01  7.59869910E+00  7.59869910E+00
 -1.51973982E+01  7.59869910E+00  7.59869910E+00 -1.51973982E+01  7.59869910E+00
  7.59869910E+00 -1.51973982E+01  7.59869910E+00  7.59869910E+00 -1.51973982E+01
  7.59869910E+00  7.59869910E+00 -1.51973982E+01  7.59869910E+00  7.59869910E+00
 -1.51973982E+01  7.59869910E+00  7.59869910E+00 -1.51973982E+01  7.59869910E+00
  7.59869910E+00 -1.51973982E+01  7.59869910E+00  7.59869910E+00 -1.51973982E+01
  7.59869910E+00  7.59869910E+00 -1.51973982E+01  7.59869910E+00  7.59869910E+00
 -1.51973982E+01  7.59869910E+00  7.59869910E+00 -1.51973982E+01  7.59869910E+00
  7.59869910E+00 -1.51973982E+01  7.59869910E+00  7.59869910E+00 -1.51973982E+01
  7.59869910E+00  7.59869910E+00 -1.51973982E+01  7.59869910E+00  7.59869910E+00
 -1.51973982E+01  7.59869910E+00  7.59869910E+00 -1.51973982E+01  7.59869910E+00
  7.59869910E+00 -1.51973982E+01  7.59869910E+00  7.59869910E+00 -1.51973982E+01
  7.59869910E+00  7.59869910E+00 -1.51973982E+01  7.59869910E+00  7.59869910E+00
 -1.51973982E+01  7.59869910E+00  7.59869910E+00 -1.51973982E+01  7.59869910E+00
  7.59869910E+00 -1.51973982E+01  7.59869910E+00  7.59869910E+00 -1.51973982E+01
  7.59869910E+00  7.59869910E+00 -1.51973982E+01  7.59869910E+00  7.59869910E+00
 -1.51973982E+01  7.59869910E+00  7.59869910E+00 -1.51973982E+01  7.59869910E+00
  7.59869910E+00 -1.51973982E+01  7.59869910E+00  7.59869910E+00 -1.51973982E+01
  7.59869910E+00  7.59869910E+00 -1.51973982E+01  7.59869910E+00  7.59869910E+00
 -1.51973982E+01  7.59869910E+00  7.59869910E+00 -1.51973982E+01  7.59869910E+00
  7.59869910E+00 -1.51973982E+01  7.59869910E+00  7.59869910E+00 -1.51973982E+01
  7.59869910E+00  7.59869910E+00 -1.51973982E+01  7.59869910E+00  7.59869910E+00
 -1.51973982E+01  7.59869910E+00  7.59869910E+00 -1.51973982E+01  7.59869910E+00
  7.59869910E+00 -1.51973982E+01  7.59869910E+00  7.59869910E+00 -1.51973982E+01
  7.59869910E+00  7.59869910E+00 -1.51973982E+01  7.59869910E+00  7.59869910E+00
 -1.51973982E+01  7.59869910E+00  7.59869910E+00 -1.51973982E+01  7.59869910E+00
  7.59869910E+00 -1.51973982E+01  7.59869910E+00  7.59869910E+00 -1.51973982E+01
  7.59869910E+00  7.59869910E+00 -1.51973982E+01  7.59869910E+00  7.59869910E+00
 -1.51973982E+01  7.59869910E+00  7.59869910E+00 -1.51973982E+01  7.59869910E+00
  7.59869910E+00 -1.51973982E+01  7.59869910E+00  7.59869910E+00 -1.51973982E+01
  7.59869910E+00  7.59869910E+00 -1.51973982E+01  7.59869910E+00  7.59869910E+00
 -1.51973982E+01  7.59869910E+00  7.59869910E+00 -1.51973982E+01  7.59869910E+00
  7.59869910E+00 -1.51973982E+01  7.59869910E+00  7.59869910E+00 -1.51973982E+01
  7.59869910E+00  7.59869910E+00 -1.51973982E+01  7.59869910E+00  7.59869910E+00
 -1.51973982E+01  7.59869910E+00  7.59869910E+00 -1.51973982E+01  7.59869910E+00
  7.59869910E+00 -1.51973982E+01  7.59869910E+00  7.59869910E+00 -1.51973982E+01
  7.59869910E+00  7.59869910E+00 -1.51973982E+01  7.59869910E+00  7.59869910E+00
 -1.51973982E+01  7.59869910E+00  7.59869910E+00 -1.51973982E+01  7.59869910E+00
  7.59869910E+00 -1.51973982E+01  7.59869910E+00  7.59869910E+00 -1.51973982E+01
  7.59869910E+00  7.59869910E+00 -1.51973982E+01  7.59869910E+00  7.59869910E+00
 -1.51973982E+01  7.59869910E+00  7.59869910E+00 -1.51973982E+01  7.59869910E+00
  7.59869910E+00 -1.51973982E+01  7.59869910E+00  7.59869910E+00 -1.51973982E+01
  7.59869910E+00  7.59869910E+00 -1.51973982E+01  7.59869910E+00  7.59869910E+00
 -1.51973982E+01  7.59869910E+00  7.59869910E+00 -1.51973982E+01  7.59869910E+00
  7.59869910E+00 -1.51973982E+01  7.59869910E+00  7.59869910E+00 -1.51973982E+01
  7.59869910E+00  7.59869910E+00 -1.51973982E+01  7.59869910E+00  7.59869910E+00
 -1.51973982E+01  7.59869910E+00  7.59869910E+00 -1.51973982E+01  7.59869910E+00
  7.59869910E+00 -1.51973982E+01  7.59869910E+00  7.59869910E+00 -1.51973982E+01
  7.59869910E+00  7.59869910E+00 -1.51973982E+01  7.59869910E+00  7.59869910E+00
 -1.51973982E+01  7.59869910E+00  7.59869910E+00 -1.51973982E+01  7.59869910E+00
  7.59869910E+00 -1.51973982E+01  7.59869910E+00  7.59869910E+00 -1.51973982E+01
  7.59869910E+00  7.59869910E+00 -1.51973982E+01  7.59869910E+00  7.59869910E+00
 -1.51973982E+01  7.59869910E+00  7.59869910E+00 -1.51973982E+01  7.59869910E+00
  7.59869910E+00 -1.51973982E+01  7.59869910E+00  7.59869910E+00 -1.51973982E+01
  7.59869910E+00  7.59869910E+00 -1.51973982E+01  7.59869910E+00  7.59869910E+00
 -1.51973982E+01  7.59869910E+00  7.59869910E+00 -1.51973982E+01  7.59869910E+00
  7.59869910E+00 -1.51973982E+01  7.59869910E+00  7.59869910E+00 -1.51973982E+01
  7.59869910E+00  7.59869910E+00 -1.51973982E+01  7.59869910E+00  7.59869910E+00
 -1.51973982E+01  7.59869910E+00  7.59869910E+00 -1.51973982E+01  7.59869910E+00
  7.59869910E+00 -1.51973982E+01  7.59869910E+00  7.59869910E+00 -1.51973982E+01
  7.59869910E+00  7.59869910E+00 -1.51973982E+01  7.59869910E+00  7.59869910E+00
 -1.51973982E+01  7.59869910E+00  7.59869910E+00 -1.51973982E+01  7.59869910E+00
  7.59869910E+00 -1.51973982E+01  7.59869910E+00  7.59869910E+00 -1.51973982E+01
  7.59869910E+00  7.59869910E+00 -1.51973982E+01  7.59869910E+00  7.59869910E+00
 -1.51973982E+01  7.59869910E+00  7.59869910E+00 -1.51973982E+01  7.59869910E+00
  7.59869910E+00 -1.51973982E+01  7.59869910E+00  7.59869910E+00 -1.51973982E+01
  7.59869910E+00  7.59869910E+00 -1.51973982E+01  7.59869910E+00  7.59869910E+00
 -1.51973982E+01  7.59869910E+00  7.59869910E+00 -1.51973982E+01  7.59869910E+00
  7.59869910E+00 -1.51973982E+01  7.59869910E+00  7.59869910E+00 -1.51973982E+01
  7.59869910E+00  7.59869910E+00 -1.51973982E+01  7.59869910E+00  7.59869910E+00
 -1.51973982E+01  7.59869910E+00  7.59869910E+00 -1.51973982E+01  7.59869910E+00
  7.59869910E+00 -1.51973982E+01  7.59869910E+00  7.59869910E+00 -1.51973982E+01
  7.59869910E+00  7.59869910E+00 -1.51973982E+01  7.59869910E+00  7.59869910E+00
 -1.51973982E+01  7.59869910E+00  7.59869910E+00 -1.51973982E+01  7.59869910E+00
  7.59869910E+00 -1.51973982E+01  7.59869910E+00  7.59869910E+00 -1.51973982E+01
  7.59869910E+00  7.59869910E+00 -1.51973982E+01  7.59869910E+00  7.59869910E+00
 -1.51973982E+01  7.59869910E+00  7.59869910E+00 -1.51973982E+01  7.59869910E+00
  7.59869910E+00 -1.51973982E+01  7.59869910E+00  7.59869910E+00 -1.51973982E+01
  7.59869910E+00  7.59869910E+00 -1.51973982E+01  7.59869910E+00  7.59869910E+00
 -1.51973982E+01  7.59869910E+00  7.59869910E+00 -1.51973982E+01  7.59869910E+00
  7.59869910E+00 -1.51973982E+01  7.59869910E+00  7.59869910E+00 -1.51973982E+01
  7.59869910E+00  7.59869910E+00 -1.51973982E+01  7.59869910E+00  7.59869910E+00
 -1.51973982E+01  7.59869910E+00  7.59869910E+00 -1.51973982E+01  7.59869910E+00
  7.59869910E+00 -1.51973982E+01  7.59869910E+00  7.59869910E+00 -1.51973982E+01
  7.59869910E+00  7.59869910E+00 -1.51973982E+01  7.59869910E+00  7.59869910E+00
 -1.51973982E+01  7.59869910E+00  7.59869910E+00 -1.51973982E+01  7.59869910E+00
  7.59869910E+00 -1.51973982E+01  7.59869910E+00  7.59869910E+00 -1.51973982E+01
  7.59869910E+00  7.59869910E+00 -1.51973982E+01  7.59869910E+00  7.59869910E+00
 -1.51973982E+01  7.59869910E+00  7.59869910E+00 -1.51973982E+01  7.59869910E+00
  7.59869910E+00 -1.51973982E+01  7.59869910E+00  7.59869910E+00 -1.51973982E+01
  7.59869910E+00  7.59869910E+00 -1.51973982E+01  7.59869910E+00  7.59869910E+00
 -1.51973982E+01  7.59869910E+00  7.59869910E+00 -1.51973982E+01  7.59869910E+00
  7.59869910E+00 -1.51973982E+01  7.59869910E+00  7.59869910E+00 -1.51973982E+01
  7.59869910E+00  7.59869910E+00 -1.51973982E+01  7.59869910E+00  7.59869910E+00
 -1.51973982E+01  7.59869910E+00  7.59869910E+00 -1.51973982E+01  7.59869910E+00
  7.59869910E+00 -1.51973982E+01  7.59869910E+00  7.59869910E+00 -1.51973982E+01
  7.59869910E+00  7.59869910E+00 -1.51973982E+01  7.59869910E+00  7.59869910E+00
 -1.51973982E+01  7.59869910E+00  7.59869910E+00 -1.51973982E+01  7.59869910E+00
  7.59869910E+00 -1.51973982E+01  7.59869910E+00  7.59869910E+00 -1.51973982E+01
  7.59869910E+00  7.59869910E+00 -1.51973982E+01  7.59869910E+00  7.59869910E+00
 -1.51973982E+01  7.59869910E+00  7.59869910E+00 -1.51973982E+01  7.59869910E+00
  7.59869910E+00 -1.51973982E+01  7.59869910E+00  7.59869910E+00 -1.51973982E+01
  7.59869910E+00  7.59869910E+00 -1.51973982E+01  7.59869910E+00  7.59869910E+00
 -1.51973982E+01  7.59869910E+00  7.59869910E+00 -1.51973982E+01  7.59869910E+00
  7.59869910E+00 -1.51973982E+01  7.59869910E+00  7.59869910E+00 -1.51973982E+01
  7.59869910E+00  7.59869910E+00 -1.51973982E+01  7.59869910E+00  7.59869910E+00
 -1.51973982E+01  7.59869910E+00  7.59869910E+00 -1.51973982E+01  7.59869910E+00
  7.59869910E+00 -1.51973982E+01  7.59869910E+00  7.59869910E+00 -1.51973982E+01
  7.59869910E+00  7.59869910E+00 -1.51973982E+01  7.59869910E+00  7.59869910E+00
 -1.51973982E+01  7.59869910E+00  7.59869910E+00 -1.51973982E+01  7.59869910E+00
  7.59869910E+00 -1.51973982E+01  7.59869910E+00  7.59869910E+00 -1.51973982E+01
  7.59869910E+00  7.59869910E+00 -1.51973982E+01  7.59869910E+00  7.59869910E+00
 -1.51973982E+01  7.59869910E+00  7.59869910E+00 -1.51973982E+01  7.59869910E+00
  7.59869910E+00 -1.51973982E+01  7.59869910E+00  7.59869910E+00 -1.51973982E+01
  7.59869910E+00  7.59869910E+00 -1.51973982E+01  7.59869910E+00  7.59869910E+00
 -1.51973982E+01  7.59869910E+00  7.59869910E+00 -1.51973982E+01  7.59869910E+00
  7.59869910E+00 -1.51973982E+01  7.59869910E+00  7.59869910E+00 -1.51973982E+01
  7.59869910E+00  7.59869910E+00 -1.51973982E+01  7.59869910E+00  7.59869910E+00
 -1.51973982E+01  7.59869910E+00  7.59869910E+00 -1.51973982E+01  7.59869910E+00
  7.59869910E+00 -1.51973982E+01  7.59869910E+00  7.59869910E+00 -1.51973982E+01
  7.59869910E+00  7.59869910E+00 -1.51973982E+01  7.59869910E+00  7.59869910E+00
 -1.51973982E+01  7.59869910E+00  7.59869910E+00 -1.51973982E+01  7.59869910E+00
  7.59869910E+00 -1.51973982E+01  7.59869910E+00  7.59869910E+00 -1.51973982E+01
  7.59869910E+00  7.59869910E+00 -1.51973982E+01  7.59869910E+00  7.59869910E+00
 -1.51973982E+01  7.59869910E+00  7.59869910E+00 -1.51973982E+01  7.59869910E+00
  7.59869910E+00 -1.51973982E+01  7.59869910E+00  7.59869910E+00 -1.51973982E+01
  7.59869910E+00  7.59869910E+00 -1.51973982E+01  7.59869910E+00  7.59869910E+00
 -1.51973982E+01  7.59869910E+00  7.59869910E+00 -1.51973982E+01  7.59869910E+00
  7.59869910E+00 -1.51973982E+01  7.59869910E+00  7.59869910E+00 -1.51973982E+01
  7.59869910E+00  7.59869910E+00 -1.51973982E+01  7.59869910E+00  7.59869910E+00
 -1.51973982E+01  7.59869910E+00  7.59869910E+00 -1.51973982E+01  7.59869910E+00
  7.59869910E+00 -1.51973982E+01  7.59869910E+00  7.59869910E+00 -1.51973982E+01
  7.59869910E+00  7.59869910E+00 -1.51973982E+01  7.59869910E+00  7.59869910E+00
 -1.51973982E+01  7.59869910E+00  7.59869910E+00 -1.51973982E+01  7.59869910E+00
  7.59869910E+00 -1.51973982E+01  7.59869910E+00  7.59869910E+00 -1.51973982E+01
  7.59869910E+00  7.59869910E+00 -1.51973982E+01  7.59869910E+00  7.59869910E+00
 -1.51973982E+01  7.59869910E+00  7.59869910E+00 -1.51973982E+01  7.59869910E+00
  7.59869910E+00 -1.51973982E+01  7.59869910E+00  7.59869910E+00 -1.51973982E+01
  7.59869910E+00  7.59869910E+00 -1.51973982E+01  7.59869910E+00  7.59869910E+00
 -1.51973982E+01  7.59869910E+00  7.59869910E+00 -1.51973982E+01  7.59869910E+00
  7.59869910E+00 -1.51973982E+01  7.59869910E+00  7.59869910E+00 -1.51973982E+01
  7.59869910E+00  7.59869910E+00 -1.51973982E+01  7.59869910E+00  7.59869910E+00
 -1.51973982E+01  7.59869910E+00  7.59869910E+00 -1.51973982E+01  7.59869910E+00
  7.59869910E+00 -1.51973982E+01  7.59869910E+00  7.59869910E+00 -1.51973982E+01
  7.59869910E+00  7.59869910E+00 -1.51973982E+01  7.59869910E+00  7.59869910E+00
 -1.51973982E+01  7.59869910E+00  7.59869910E+00 -1.51973982E+01  7.59869910E+00
  7.59869910E+00 -1.51973982E+01  7.59869910E+00  7.59869910E+00 -1.51973982E+01
  7.59869910E+00  7.59869910E+00 -1.51973982E+01  7.59869910E+00  7.59869910E+00
 -1.51973982E+01  7.59869910E+00  7.59869910E+00 -1.51973982E+01  7.59869910E+00
  7.59869910E+00 -1.51973982E+01  7.59869910E+00  7.59869910E+00 -1.51973982E+01
  7.59869910E+00  7.59869910E+00 -1.51973982E+01  7.59869910E+00  7.59869910E+00
 -1.51973982E+01  7.59869910E+00  7.59869910E+00 -1.51973982E+01  7.59869910E+00
  7.59869910E+00 -1.51973982E+01  7.59869910E+00  7.59869910E+00 -1.51973982E+01
  7.59869910E+00  7.59869910E+00 -1.51973982E+01  7.59869910E+00  7.59869910E+00
 -1.51973982E+01  7.59869910E+00  7.59869910E+00 -1.51973982E+01  7.59869910E+00
  7.59869910E+00 -1.51973982E+01  7.59869910E+00  7.59869910E+00 -1.51973982E+01
  7.59869910E+00  7.59869910E+00 -1.51973982E+01  7.59869910E+00  7.59869910E+00
 -1.51973982E+01  7.59869910E+00  7.59869910E+00 -1.51973982E+01  7.59869910E+00
  7.59869910E+00 -1.51973982E+01  7.59869910E+00  7.59869910E+00 -1.51973982E+01
  7.59869910E+00  7.59869910E+00 -1.51973982E+01  7.59869910E+00  7.59869910E+00
 -1.51973982E+01  7.59869910E+00  7.59869910E+00 -1.51973982E+01  7.59869910E+00
  7.59869910E+00 -1.51973982E+01  7.59869910E+00  7.59869910E+00 -1.51973982E+01
  7.59869910E+00  7.59869910E+00 -1.51973982E+01  7.59869910E+00  7.59869910E+00
 -1.51973982E+01  7.59869910E+00  7.59869910E+00 -1.51973982E+01  7.59869910E+00
  7.59869910E+00 -1.51973982E+01  7.59869910E+00  7.59869910E+00 -1.51973982E+01
  7.59869910E+00  7.59869910E+00 -1.51973982E+01  7.59869910E+00  7.59869910E+00
 -1.51973982E+01  7.59869910E+00  7.59869910E+00 -1.51973982E+01  7.59869910E+00
  7.59869910E+00 -1.51973982E+01  7.59869910E+00  7.59869910E+00 -1.51973982E+01
  7.59869910E+00  7.59869910E+00 -1.51973982E+01  7.59869910E+00  7.59869910E+00
 -1.51973982E+01  7.59869910E+00  7.59869910E+00 -1.51973982E+01  7.59869910E+00
  7.59869910E+00 -1.51973982E+01  7.59869910E+00  7.59869910E+00 -1.51973982E+01
  7.59869910E+00  7.59869910E+00 -1.51973982E+01  7.59869910E+00  7.59869910E+00
 -1.51973982E+01  7.59869910E+00  7.59869910E+00 -1.51973982E+01  7.59869910E+00
  7.59869910E+00 -1.51973982E+01  7.59869910E+00  7.59869910E+00 -1.51973982E+01
  7.59869910E+00  7.59869910E+00 -1.51973982E+01  7.59869910E+00  7.59869910E+00
 -1.51973982E+01  7.59869910E+00  7.59869910E+00 -1.51973982E+01  7.59869910E+00
  7.59869910E+00 -1.51973982E+01  7.59869910E+00  7.59869910E+00 -1.51973982E+01
  7.59869910E+00  7.59869910E+00 -1.51973982E+01  7.59869910E+00  7.59869910E+00
 -1.51973982E+01  7.59869910E+00  7.59869910E+00 -1.51973982E+01  7.59869910E+00
  7.59869910E+00 -1.51973982E+01  7.59869910E+00  7.59869910E+00 -1.51973982E+01
  7.59869910E+00  7.59869910E+00 -1.51973982E+01  7.59869910E+00  7.59869910E+00
 -1.51973982E+01  7.59869910E+00  7.59869910E+00 -1.51973982E+01  7.59869910E+00
  7.59869910E+00 -1.51973982E+01  7.59869910E+00  7.59869910E+00 -1.51973982E+01
  7.59869910E+00  7.59869910E+00 -1.51973982E+01  7.59869910E+00  7.59869910E+00
 -1.51973982E+01  7.59869910E+00  7.59869910E+00 -1.51973982E+01  7.59869910E+00
  7.59869910E+00 -1.51973982E+01  7.59869910E+00  7.59869910E+00 -1.51973982E+01
  7.59869910E+00  7.59869910E+00 -1.51973982E+01  7.59869910E+00  7.59869910E+00
 -1.51973982E+01  7.59869910E+00  7.59869910E+00 -1.51973982E+01  7.59869910E+00
  7.59869910E+00 -1.51973982E+01  7.59869910E+00  7.59869910E+00 -1.51973982E+01
  7.59869910E+00  7.59869910E+00 -1.51973982E+01  7.59869910E+00  7.59869910E+00
 -1.51973982E+01  7.59869910E+00  7.59869910E+00 -1.51973982E+01  7.59869910E+00
  7.59869910E+00 -1.51973982E+01  7.59869910E+00  7.59869910E+00 -1.51973982E+01
  7.59869910E+00  7.59869910E+00 -1.51973982E+01  7.59869910E+00  7.59869910E+00
 -1.51973982E+01  7.59869910E+00  7.59869910E+00 -1.51973982E+01  7.59869910E+00
  7.59869910E+00 -1.51973982E+01  7.59869910E+00  7.59869910E+00 -1.51973982E+01
  7.59869910E+00  7.59869910E+00 -1.51973982E+01  7.59869910E+00  7.59869910E+00
 -1.51973982E+01  7.59869910E+00  7.59869910E+00 -1.51973982E+01  7.59869910E+00
  7.59869910E+00 -1.51973982E+01  7.59869910E+00  7.59869910E+00 -1.51973982E+01
  7.59869910E+00  7.59869910E+00 -1.51973982E+01  7.59869910E+00  7.59869910E+00
 -1.51973982E+01  7.59869910E+00  7.59869910E+00 -1.51973982E+01  7.59869910E+00
  7.59869910E+00 -1.51973982E+01  7.59869910E+00  7.59869910E+00 -1.51973982E+01
  7.59869910E+00  7.59869910E+00 -1.51973982E+01  7.59869910E+00  7.59869910E+00
 -1.51973982E+01  7.59869910E+00  7.59869910E+00 -1.51973982E+01  7.59869910E+00
  7.59869910E+00 -1.51973982E+01  7.59869910E+00  7.59869910E+00 -1.51973982E+01
  7.59869910E+00  7.59869910E+00 -1.51973982E+01  7.59869910E+00  7.59869910E+00
 -1.51973982E+01  7.59869910E+00  7.59869910E+00 -1.51973982E+01  7.59869910E+00
  7.59869910E+00 -1.51973982E+01  7.59869910E+00  7.59869910E+00 -1.51973982E+01
  7.59869910E+00  7.59869910E+00 -1.51973982E+01  7.59869910E+00  7.59869910E+00
 -1.51973982E+01  7.59869910E+00  7.59869910E+00 -1.51973982E+01  7.59869910E+00
  7.59869910E+00 -1.51973982E+01  7.59869910E+00  7.59869910E+00 -1.51973982E+01
  7.59869910E+00  7.59869910E+00 -1.51973982E+01  7.59869910E+00  7.59869910E+00
 -1.51973982E+01  7.59869910E+00  7.59869910E+00 -1.51973982E+01  7.59869910E+00
  7.59869910E+00 -1.51973982E+01  7.59869910E+00  7.59869910E+00 -1.51973982E+01
  7.59869910E+00  7.59869910E+00 -1.51973982E+01  7.59869910E+00  7.59869910E+00
 -1.51973982E+01  7.59869910E+00  7.59869910E+00 -1.51973982E+01  7.59869910E+00
  7.59869910E+00 -1.51973982E+01  7.59869910E+00  7.59869910E+00 -1.51973982E+01
  7.59869910E+00  7.59869910E+00 -1.51973982E+01  7.59869910E+00  7.59869910E+00
 -1.51973982E+01  7.59869910E+00  7.59869910E+00 -1.51973982E+01  7.59869910E+00
  7.59869910E+00 -1.51973982E+01  7.59869910E+00  7.59869910E+00 -1.51973982E+01
  7.59869910E+00  7.59869910E+00 -1.51973982E+01  7.59869910E+00  7.59869910E+00
 -1.51973982E+01  7.59869910E+00  7.59869910E+00 -1.51973982E+01  7.59869910E+00
  7.59869910E+00 -1.51973982E+01  7.59869910E+00  7.59869910E+00 -1.51973982E+01
  7.59869910E+00  7.59869910E+00 -1.51973982E+01  7.59869910E+00  7.59869910E+00
 -1.51973982E+01  7.59869910E+00  7.59869910E+00 -1.51973982E+01  7.59869910E+00
  7.59869910E+00 -1.51973982E+01  7.59869910E+00  7.59869910E+00 -1.51973982E+01
  7.59869910E+00  7.59869910E+00 -1.51973982E+01  7.59869910E+00  7.59869910E+00
 -1.51973982E+01  7.59869910E+00  7.59869910E+00 -1.51973982E+01  7.59869910E+00
  7.59869910E+00 -1.51973982E+01  7.59869910E+00  7.59869910E+00 -1.51973982E+01
  7.59869910E+00  7.59869910E+00 -1.51973982E+01  7.59869910E+00  7.59869910E+00
 -1.51973982E+01  7.59869910E+00  7.59869910E+00 -1.51973982E+01  7.59869910E+00
  7.59869910E+00 -1.51973982E+01  7.59869910E+00  7.59869910E+00 -1.51973982E+01
  7.59869910E+00  7.59869910E+00 -1.51973982E+01  7.59869910E+00  7.59869910E+00
 -1.51973982E+01  7.59869910E+00  7.59869910E+00 -1.51973982E+01  7.59869910E+00
  7.59869910E+00 -1.51973982E+01  7.59869910E+00  7.59869910E+00 -1.51973982E+01
  7.59869910E+00  7.59869910E+00 -1.51973982E+01  7.59869910E+00  7.59869910E+00
 -1.51973982E+01  7.59869910E+00  7.59869910E+00 -1.51973982E+01  7.59869910E+00
  7.59869910E+00 -1.51973982E+01  7.59869910E+00  7.59869910E+00 -1.51973982E+01
  7.59869910E+00  7.59869910E+00 -1.51973982E+01  7.59869910E+00  7.59869910E+00
 -1.51973982E+01  7.59869910E+00  7.59869910E+00 -1.51973982E+01  7.59869910E+00
  7.59869910E+00 -1.51973982E+01  7.59869910E+00  7.59869910E+00 -1.51973982E+01
  7.59869910E+00  7.59869910E+00 -1.51973982E+01  7.59869910E+00  7.59869910E+00
 -1.51973982E+01  7.59869910E+00  7.59869910E+00 -1.51973982E+01  7.59869910E+00
  7.59869910E+00 -1.51973982E+01  7.59869910E+00  7.59869910E+00 -1.51973982E+01
  7.59869910E+00  7.59869910E+00 -1.51973982E+01  7.59869910E+00  7.59869910E+00
 -1.51973982E+01  7.59869910E+00  7.59869910E+00 -1.51973982E+01  7.59869910E+00
  7.59869910E+00 -1.51973982E+01  7.59869910E+00  7.59869910E+00 -1.51973982E+01
  7.59869910E+00  7.59869910E+00 -1.51973982E+01  7.59869910E+00  7.59869910E+00
 -1.51973982E+01  7.59869910E+00  7.59869910E+00 -1.51973982E+01  7.59869910E+00
  7.59869910E+00 -1.51973982E+01  7.59869910E+00  7.59869910E+00 -1.51973982E+01
  7.59869910E+00  7.59869910E+00 -1.51973982E+01  7.59869910E+00  7.59869910E+00
 -1.51973982E+01  7.59869910E+00  7.59869910E+00 -1.51973982E+01  7.59869910E+00
  7.59869910E+00 -1.51973982E+01  7.59869910E+00  7.59869910E+00 -1.51973982E+01
  7.59869910E+00  7.59869910E+00 -1.51973982E+01  7.59869910E+00  7.59869910E+00
 -1.51973982E+01  7.59869910E+00  7.59869910E+00 -1.51973982E+01  7.59869910E+00
  7.59869910E+00 -1.51973982E+01  7.59869910E+00  7.59869910E+00 -1.51973982E+01
  7.59869910E+00  7.59869910E+00 -1.51973982E+01  7.59869910E+00  7.59869910E+00
 -1.51973982E+01  7.59869910E+00  7.59869910E+00 -1.51973982E+01  7.59869910E+00
  7.59869910E+00 -1.51973982E+01  7.59869910E+00  7.59869910E+00 -1.51973982E+01
  7.59869910E+00  7.59869910E+00 -1.51973982E+01  7.59869910E+00  7.59869910E+00
 -1.51973982E+01  7.59869910E+00  7.59869910E+00 -1.51973982E+01  7.59869910E+00
  7.59869910E+00 -1.51973982E+01  7.59869910E+00  7.59869910E+00 -1.51973982E+01
  7.59869910E+00  7.59869910E+00 -1.51973982E+01  7.59869910E+00  7.59869910E+00
 -1.51973982E+01  7.59869910E+00  7.59869910E+00 -1.51973982E+01  7.59869910E+00
  7.59869910E+00 -1.51973982E+01  7.59869910E+00  7.59869910E+00 -1.51973982E+01
  7.59869910E+00  7.59869910E+00 -1.51973982E+01  7.59869910E+00  7.59869910E+00
 -1.51973982E+01  7.59869910E+00  7.59869910E+00 -1.51973982E+01  7.59869910E+00
  7.59869910E+00 -1.51973982E+01  7.59869910E+00  7.59869910E+00 -1.51973982E+01
  7.59869910E+00  7.59869910E+00 -1.51973982E+01  7.59869910E+00  7.59869910E+00
 -1.51973982E+01  7.59869910E+00  7.59869910E+00 -1.51973982E+01  7.59869910E+00
  7.59869910E+00 -1.51973982E+01  7.59869910E+00  7.59869910E+00 -1.51973982E+01
  7.59869910E+00  7.59869910E+00 -1.51973982E+01  7.59869910E+00  7.59869910E+00
 -1.51973982E+01  7.59869910E+00  7.59869910E+00 -1.51973982E+01  7.59869910E+00
  7.59869910E+00 -1.51973982E+01  7.59869910E+00  7.59869910E+00 -1.51973982E+01
  7.59869910E+00  7.59869910E+00 -1.51973982E+01  7.59869910E+00  7.59869910E+00
 -1.51973982E+01  7.59869910E+00  7.59869910E+00 -1.51973982E+01  7.59869910E+00
  7.59869910E+00 -1.51973982E+01  7.59869910E+00  7.59869910E+00 -1.51973982E+01
  7.59869910E+00  7.59869910E+00 -1.51973982E+01  7.59869910E+00  7.59869910E+00
 -1.51973982E+01  7.59869910E+00  7.59869910E+00 -1.51973982E+01  7.59869910E+00
  7.59869910E+00 -1.51973982E+01  7.59869910E+00  7.59869910E+00 -1.51973982E+01
  7.59869910E+00  7.59869910E+00 -1.51973982E+01  7.59869910E+00  7.59869910E+00
 -1.51973982E+01  7.59869910E+00  7.59869910E+00 -1.51973982E+01  7.59869910E+00
  7.59869910E+00 -1.51973982E+01  7.59869910E+00  7.59869910E+00 -1.51973982E+01
  7.59869910E+00  7.59869910E+00 -1.51973982E+01  7.59869910E+00  7.59869910E+00
 -1.51973982E+01  7.59869910E+00  7.59869910E+00 -1.51973982E+01  7.59869910E+00
  7.59869910E+00 -1.51973982E+01  7.59869910E+00  7.59869910E+00 -1.51973982E+01
  7.59869910E+00  7.59869910E+00 -1.51973982E+01  7.59869910E+00  7.59869910E+00
 -1.51973982E+01  7.59869910E+00  7.59869910E+00 -1.51973982E+01  7.59869910E+00
  7.59869910E+00 -1.51973982E+01  7.59869910E+00  7.59869910E+00 -1.51973982E+01
  7.59869910E+00  7.59869910E+00 -1.51973982E+01  7.59869910E+00  7.59869910E+00
 -1.51973982E+01  7.59869910E+00  7.59869910E+00 -1.51973982E+01  7.59869910E+00
  7.59869910E+00 -1.51973982E+01  7.59869910E+00  7.59869910E+00 -1.51973982E+01
  7.59869910E+00  7.59869910E+00 -1.51973982E+01  7.59869910E+00  7.59869910E+00
 -1.51973982E+01  7.59869910E+00  7.59869910E+00 -1.51973982E+01  7.59869910E+00
  7.59869910E+00 -1.51973982E+01  7.59869910E+00  7.59869910E+00 -1.51973982E+01
  7.59869910E+00  7.59869910E+00 -1.51973982E+01  7.59869910E+00  7.59869910E+00
 -1.51973982E+01  7.59869910E+00  7.59869910E+00 -1.51973982E+01  7.59869910E+00
  7.59869910E+00 -1.51973982E+01  7.59869910E+00  7.59869910E+00 -1.51973982E+01
  7.59869910E+00  7.59869910E+00 -1.51973982E+01  7.59869910E+00  7.59869910E+00
 -1.51973982E+01  7.59869910E+00  7.59869910E+00 -1.51973982E+01  7.59869910E+00
  7.59869910E+00 -1.51973982E+01  7.59869910E+00  7.59869910E+00 -1.51973982E+01
  7.59869910E+00  7.59869910E+00 -1.51973982E+01  7.59869910E+00  7.59869910E+00
 -1.51973982E+01  7.59869910E+00  7.59869910E+00 -1.51973982E+01  7.59869910E+00
  7.59869910E+00 -1.51973982E+01  7.59869910E+00  7.59869910E+00 -1.51973982E+01
  7.59869910E+00  7.59869910E+00 -1.51973982E+01  7.59869910E+00  7.59869910E+00
 -1.51973982E+01  7.59869910E+00  7.59869910E+00 -1.51973982E+01  7.59869910E+00
  7.59869910E+00 -1.51973982E+01  7.59869910E+00  7.59869910E+00 -1.51973982E+01
  7.59869910E+00  7.59869910E+00 -1.51973982E+01  7.59869910E+00  7.59869910E+00
 -1.51973982E+01  7.59869910E+00  7.59869910E+00 -1.51973982E+01  7.59869910E+00
  7.59869910E+00 -1.51973982E+01  7.59869910E+00  7.59869910E+00 -1.51973982E+01
  7.59869910E+00  7.59869910E+00 -1.51973982E+01  7.59869910E+00  7.59869910E+00
 -1.51973982E+01  7.59869910E+00  7.59869910E+00 -1.51973982E+01  7.59869910E+00
  7.59869910E+00 -1.51973982E+01  7.59869910E+00  7.59869910E+00 -1.51973982E+01
  7.59869910E+00  7.59869910E+00 -1.51973982E+01  7.59869910E+00  7.59869910E+00
 -1.51973982E+01  7.59869910E+00  7.59869910E+00 -1.51973982E+01  7.59869910E+00
  7.59869910E+00 -1.51973982E+01  7.59869910E+00  7.59869910E+00 -1.51973982E+01
  7.59869910E+00  7.59869910E+00 -1.51973982E+01  7.59869910E+00  7.59869910E+00
 -1.51973982E+01  7.59869910E+00  7.59869910E+00 -1.51973982E+01  7.59869910E+00
  7.59869910E+00 -1.51973982E+01  7.59869910E+00  7.59869910E+00 -1.51973982E+01
  7.59869910E+00  7.59869910E+00 -1.51973982E+01  7.59869910E+00  7.59869910E+00
 -1.51973982E+01  7.59869910E+00  7.59869910E+00 -1.51973982E+01  7.59869910E+00
  7.59869910E+00 -1.51973982E+01  7.59869910E+00  7.59869910E+00 -1.51973982E+01
  7.59869910E+00  7.59869910E+00 -1.51973982E+01  7.59869910E+00  7.59869910E+00
 -1.51973982E+01  7.59869910E+00  7.59869910E+00 -1.51973982E+01  7.59869910E+00
  7.59869910E+00 -1.51973982E+01  7.59869910E+00  7.59869910E+00 -1.51973982E+01
  7.59869910E+00  7.59869910E+00 -1.51973982E+01  7.59869910E+00  7.59869910E+00
 -1.51973982E+01  7.59869910E+00  7.59869910E+00 -1.51973982E+01  7.59869910E+00
  7.59869910E+00 -1.51973982E+01  7.59869910E+00  7.59869910E+00 -1.51973982E+01
  7.59869910E+00  7.59869910E+00 -1.51973982E+01  7.59869910E+00  7.59869910E+00
 -1.51973982E+01  7.59869910E+00  7.59869910E+00 -1.51973982E+01  7.59869910E+00
  7.59869910E+00 -1.51973982E+01  7.59869910E+00  7.59869910E+00 -1.51973982E+01
  7.59869910E+00  7.59869910E+00 -1.51973982E+01  7.59869910E+00  7.59869910E+00
 -1.51973982E+01  7.59869910E+00  7.59869910E+00 -1.51973982E+01  7.59869910E+00
  7.59869910E+00 -1.51973982E+01  7.59869910E+00  7.59869910E+00 -1.51973982E+01
  7.59869910E+00  7.59869910E+00 -1.51973982E+01  7.59869910E+00  7.59869910E+00
 -1.51973982E+01  7.59869910E+00  7.59869910E+00 -1.51973982E+01  7.59869910E+00
  7.59869910E+00 -1.51973982E+01  7.59869910E+00  7.59869910E+00 -1.51973982E+01
  7.59869910E+00  7.59869910E+00 -1.51973982E+01  7.59869910E+00  7.59869910E+00
 -1.51973982E+01  7.59869910E+00  7.59869910E+00 -1.51973982E+01  7.59869910E+00
  7.59869910E+00 -1.51973982E+01  7.59869910E+00  7.59869910E+00 -1.51973982E+01
  7.59869910E+00  7.59869910E+00 -1.51973982E+01  7.59869910E+00  7.59869910E+00
 -1.51973982E+01  7.59869910E+00  7.59869910E+00 -1.51973982E+01  7.59869910E+00
  7.59869910E+00 -1.51973982E+01  7.59869910E+00  7.59869910E+00 -1.51973982E+01
  7.59869910E+00  7.59869910E+00 -1.51973982E+01  7.59869910E+00  7.59869910E+00
 -1.51973982E+01  7.59869910E+00  7.59869910E+00 -1.51973982E+01  7.59869910E+00
  7.59869910E+00 -1.51973982E+01  7.59869910E+00  7.59869910E+00 -1.51973982E+01
  7.59869910E+00  7.59869910E+00 -1.51973982E+01  7.59869910E+00  7.59869910E+00
 -1.51973982E+01  7.59869910E+00  7.59869910E+00 -1.51973982E+01  7.59869910E+00
  7.59869910E+00 -1.51973982E+01  7.59869910E+00  7.59869910E+00 -1.51973982E+01
  7.59869910E+00  7.59869910E+00 -1.51973982E+01  7.59869910E+00  7.59869910E+00
 -1.51973982E+01  7.59869910E+00  7.59869910E+00 -1.51973982E+01  7.59869910E+00
  7.59869910E+00 -1.51973982E+01  7.59869910E+00  7.59869910E+00 -1.51973982E+01
  7.59869910E+00  7.59869910E+00 -1.51973982E+01  7.59869910E+00  7.59869910E+00
 -1.51973982E+01  7.59869910E+00  7.59869910E+00 -1.51973982E+01  7.59869910E+00
  7.59869910E+00 -1.51973982E+01  7.59869910E+00  7.59869910E+00 -1.51973982E+01
  7.59869910E+00  7.59869910E+00 -1.51973982E+01  7.59869910E+00  7.59869910E+00
 -1.51973982E+01  7.59869910E+00  7.59869910E+00 -1.51973982E+01  7.59869910E+00
  7.59869910E+00 -1.51973982E+01  7.59869910E+00  7.59869910E+00 -1.51973982E+01
  7.59869910E+00  7.59869910E+00 -1.51973982E+01  7.59869910E+00  7.59869910E+00
 -1.51973982E+01  7.59869910E+00  7.59869910E+00 -1.51973982E+01  7.59869910E+00
  7.59869910E+00 -1.51973982E+01  7.59869910E+00  7.59869910E+00 -1.51973982E+01
  7.59869910E+00  7.59869910E+00 -1.51973982E+01  7.59869910E+00  7.59869910E+00
 -1.51973982E+01  7.59869910E+00  7.59869910E+00 -1.51973982E+01  7.59869910E+00
  7.59869910E+00 -1.51973982E+01  7.59869910E+00  7.59869910E+00 -1.51973982E+01
  7.59869910E+00  7.59869910E+00 -1.51973982E+01  7.59869910E+00  7.59869910E+00
 -1.51973982E+01  7.59869910E+00  7.59869910E+00 -1.51973982E+01  7.59869910E+00
  7.59869910E+00 -1.51973982E+01  7.59869910E+00  7.59869910E+00 -1.51973982E+01
  7.59869910E+00  7.59869910E+00 -1.51973982E+01  7.59869910E+00  7.59869910E+00
 -1.51973982E+01  7.59869910E+00  7.59869910E+00 -1.51973982E+01  7.59869910E+00
  7.59869910E+00 -1.51973982E+01  7.59869910E+00  7.59869910E+00 -1.51973982E+01
  7.59869910E+00  7.59869910E+00 -1.51973982E+01  7.59869910E+00  7.59869910E+00
 -1.51973982E+01  7.59869910E+00  7.59869910E+00 -1.51973982E+01  7.59869910E+00
  7.59869910E+00 -1.51973982E+01  7.59869910E+00  7.59869910E+00 -1.51973982E+01
  7.59869910E+00  7.59869910E+00 -1.51973982E+01  7.59869910E+00  7.59869910E+00
 -1.51973982E+01  7.59869910E+00  7.59869910E+00 -1.51973982E+01  7.59869910E+00
  7.59869910E+00 -1.51973982E+01  7.59869910E+00  7.59869910E+00 -1.51973982E+01
  7.59869910E+00  7.59869910E+00 -1.51973982E+01  7.59869910E+00  7.59869910E+00
 -1.51973982E+01  7.59869910E+00  7.59869910E+00 -1.51973982E+01  7.59869910E+00
  7.59869910E+00 -1.51973982E+01  7.59869910E+00  7.59869910E+00 -1.51973982E+01
  7.59869910E+00  7.59869910E+00 -1.51973982E+01  7.59869910E+00  7.59869910E+00
 -1.51973982E+01  7.59869910E+00  7.59869910E+00 -1.51973982E+01  7.59869910E+00
  7.59869910E+00 -1.51973982E+01  7.59869910E+00  7.59869910E+00 -1.51973982E+01
  7.59869910E+00  7.59869910E+00 -1.51973982E+01  7.59869910E+00  7.59869910E+00
 -1.51973982E+01  7.59869910E+00  7.59869910E+00 -1.51973982E+01  7.59869910E+00
  7.59869910E+00 -1.51973982E+01  7.59869910E+00  7.59869910E+00 -1.51973982E+01
  7.59869910E+00  7.59869910E+00 -1.51973982E+01  7.59869910E+00  7.59869910E+00
 -1.51973982E+01  7.59869910E+00  7.59869910E+00 -1.51973982E+01  7.59869910E+00
  7.59869910E+00 -1.51973982E+01  7.59869910E+00  7.59869910E+00 -1.51973982E+01
  7.59869910E+00  7.59869910E+00 -1.51973982E+01  7.59869910E+00  7.59869910E+00
 -1.51973982E+01  7.59869910E+00  7.59869910E+00 -1.51973982E+01  7.59869910E+00
  7.59869910E+00 -1.51973982E+01  7.59869910E+00  7.59869910E+00 -1.51973982E+01
  7.59869910E+00  7.59869910E+00 -1.51973982E+01  7.59869910E+00  7.59869910E+00
 -1.51973982E+01  7.59869910E+00  7.59869910E+00 -1.51973982E+01  7.59869910E+00
  7.59869910E+00 -1.51973982E+01  7.59869910E+00  7.59869910E+00 -1.51973982E+01
  7.59869910E+00  7.59869910E+00 -1.51973982E+01  7.59869910E+00  7.59869910E+00
 -1.51973982E+01  7.59869910E+00  7.59869910E+00 -1.51973982E+01  7.59869910E+00
  7.59869910E+00 -1.51973982E+01  7.59869910E+00  7.59869910E+00 -1.51973982E+01
  7.59869910E+00  7.59869910E+00 -1.51973982E+01  7.59869910E+00  7.59869910E+00
 -1.51973982E+01  7.59869910E+00  7.59869910E+00 -1.51973982E+01  7.59869910E+00
  7.59869910E+00 -1.51973982E+01  7.59869910E+00  7.59869910E+00 -1.51973982E+01
  7.59869910E+00  7.59869910E+00 -1.51973982E+01  7.59869910E+00  7.59869910E+00
 -1.51973982E+01  7.59869910E+00  7.59869910E+00 -1.51973982E+01  7.59869910E+00
  7.59869910E+00 -1.51973982E+01  7.59869910E+00  7.59869910E+00 -1.51973982E+01
  7.59869910E+00  7.59869910E+00 -1.51973982E+01  7.59869910E+00  7.59869910E+00
 -1.51973982E+01  7.59869910E+00  7.59869910E+00 -1.51973982E+01  7.59869910E+00
  7.59869910E+00 -1.51973982E+01  7.59869910E+00  7.59869910E+00 -1.51973982E+01
  7.59869910E+00  7.59869910E+00 -1.51973982E+01  7.59869910E+00  7.59869910E+00
 -1.51973982E+01  7.59869910E+00  7.59869910E+00 -1.51973982E+01  7.59869910E+00
  7.59869910E+00 -1.51973982E+01  7.59869910E+00  7.59869910E+00 -1.51973982E+01
  7.59869910E+00  7.59869910E+00 -1.51973982E+01  7.59869910E+00  7.59869910E+00
 -1.51973982E+01  7.59869910E+00  7.59869910E+00 -1.51973982E+01  7.59869910E+00
  7.59869910E+00 -1.51973982E+01  7.59869910E+00  7.59869910E+00 -1.51973982E+01
  7.59869910E+00  7.59869910E+00 -1.51973982E+01  7.59869910E+00  7.59869910E+00
 -1.51973982E+01  7.59869910E+00  7.59869910E+00 -1.51973982E+01  7.59869910E+00
  7.59869910E+00 -1.51973982E+01  7.59869910E+00  7.59869910E+00 -1.51973982E+01
  7.59869910E+00  7.59869910E+00 -1.51973982E+01  7.59869910E+00  7.59869910E+00
 -1.51973982E+01  7.59869910E+00  7.59869910E+00 -1.51973982E+01  7.59869910E+00
  7.59869910E+00 -1.51973982E+01  7.59869910E+00  7.59869910E+00 -1.51973982E+01
  7.59869910E+00  7.59869910E+00 -1.51973982E+01  7.59869910E+00  7.59869910E+00
 -1.51973982E+01  7.59869910E+00  7.59869910E+00 -1.51973982E+01  7.59869910E+00
  7.59869910E+00 -1.51973982E+01  7.59869910E+00  7.59869910E+00 -1.51973982E+01
  7.59869910E+00  7.59869910E+00 -1.51973982E+01  7.59869910E+00  7.59869910E+00
 -1.51973982E+01  7.59869910E+00  7.59869910E+00 -1.51973982E+01  7.59869910E+00
  7.59869910E+00 -1.51973982E+01  7.59869910E+00  7.59869910E+00 -1.51973982E+01
  7.59869910E+00  7.59869910E+00 -1.51973982E+01  7.59869910E+00  7.59869910E+00
 -1.51973982E+01  7.59869910E+00  7.59869910E+00 -1.51973982E+01  7.59869910E+00
  7.59869910E+00 -1.51973982E+01  7.59869910E+00  7.59869910E+00 -1.51973982E+01
  7.59869910E+00  7.59869910E+00 -1.51973982E+01  7.59869910E+00  7.59869910E+00
 -1.51973982E+01  7.59869910E+00  7.59869910E+00 -1.51973982E+01  7.59869910E+00
  7.59869910E+00 -1.51973982E+01  7.59869910E+00  7.59869910E+00 -1.51973982E+01
  7.59869910E+00  7.59869910E+00 -1.51973982E+01  7.59869910E+00  7.59869910E+00
 -1.51973982E+01  7.59869910E+00  7.59869910E+00 -1.51973982E+01  7.59869910E+00
  7.59869910E+00 -1.51973982E+01  7.59869910E+00  7.59869910E+00 -1.51973982E+01
  7.59869910E+00  7.59869910E+00 -1.51973982E+01  7.59869910E+00  7.59869910E+00
 -1.51973982E+01  7.59869910E+00  7.59869910E+00 -1.51973982E+01  7.59869910E+00
  7.59869910E+00 -1.51973982E+01  7.59869910E+00  7.59869910E+00 -1.51973982E+01
  7.59869910E+00  7.59869910E+00 -1.51973982E+01  7.59869910E+00  7.59869910E+00
 -1.51973982E+01  7.59869910E+00  7.59869910E+00 -1.51973982E+01  7.59869910E+00
  7.59869910E+00 -1.51973982E+01  7.59869910E+00  7.59869910E+00 -1.51973982E+01
  7.59869910E+00  7.59869910E+00 -1.51973982E+01  7.59869910E+00  7.59869910E+00
 -1.51973982E+01  7.59869910E+00  7.59869910E+00 -1.51973982E+01  7.59869910E+00
  7.59869910E+00 -1.51973982E+01  7.59869910E+00  7.59869910E+00 -1.51973982E+01
  7.59869910E+00  7.59869910E+00 -1.51973982E+01  7.59869910E+00  7.59869910E+00
 -1.51973982E+01  7.59869910E+00  7.59869910E+00 -1.51973982E+01  7.59869910E+00
  7.59869910E+00 -1.51973982E+01  7.59869910E+00  7.59869910E+00 -1.51973982E+01
  7.59869910E+00  7.59869910E+00 -1.51973982E+01  7.59869910E+00  7.59869910E+00
 -1.51973982E+01  7.59869910E+00  7.59869910E+00 -1.51973982E+01  7.59869910E+00
  7.59869910E+00 -1.51973982E+01  7.59869910E+00  7.59869910E+00 -1.51973982E+01
  7.59869910E+00  7.59869910E+00 -1.51973982E+01  7.59869910E+00  7.59869910E+00
 -1.51973982E+01  7.59869910E+00  7.59869910E+00 -1.51973982E+01  7.59869910E+00
  7.59869910E+00 -1.51973982E+01  7.59869910E+00  7.59869910E+00 -1.51973982E+01
  7.59869910E+00  7.59869910E+00 -1.51973982E+01  7.59869910E+00  7.59869910E+00
 -1.51973982E+01  7.59869910E+00  7.59869910E+00 -1.51973982E+01  7.59869910E+00
  7.59869910E+00 -1.51973982E+01  7.59869910E+00  7.59869910E+00 -1.51973982E+01
  7.59869910E+00  7.59869910E+00 -1.51973982E+01  7.59869910E+00  7.59869910E+00
 -1.51973982E+01  7.59869910E+00  7.59869910E+00 -1.51973982E+01  7.59869910E+00
  7.59869910E+00 -1.51973982E+01  7.59869910E+00  7.59869910E+00 -1.51973982E+01
  7.59869910E+00  7.59869910E+00 -1.51973982E+01  7.59869910E+00  7.59869910E+00
 -1.51973982E+01  7.59869910E+00  7.59869910E+00 -1.51973982E+01  7.59869910E+00
  7.59869910E+00 -1.51973982E+01  7.59869910E+00  7.59869910E+00 -1.51973982E+01
  7.59869910E+00  7.59869910E+00 -1.51973982E+01  7.59869910E+00  7.59869910E+00
 -1.51973982E+01  7.59869910E+00  7.59869910E+00 -1.51973982E+01  7.59869910E+00
  7.59869910E+00 -1.51973982E+01  7.59869910E+00  7.59869910E+00 -1.51973982E+01
  7.59869910E+00  7.59869910E+00 -1.51973982E+01  7.59869910E+00  7.59869910E+00
 -1.51973982E+01  7.59869910E+00  7.59869910E+00 -1.51973982E+01  7.59869910E+00
  7.59869910E+00 -1.51973982E+01  7.59869910E+00  7.59869910E+00 -1.51973982E+01
  7.59869910E+00  7.59869910E+00 -1.51973982E+01  7.59869910E+00  7.59869910E+00
 -1.51973982E+01  7.59869910E+00  7.59869910E+00 -1.51973982E+01  7.59869910E+00
  7.59869910E+00 -1.51973982E+01  7.59869910E+00  7.59869910E+00 -1.51973982E+01
  7.59869910E+00  7.59869910E+00 -1.51973982E+01  7.59869910E+00  7.59869910E+00
 -1.51973982E+01  7.59869910E+00  7.59869910E+00 -1.51973982E+01  7.59869910E+00
  7.59869910E+00 -1.51973982E+01  7.59869910E+00  7.59869910E+00 -1.51973982E+01
  7.59869910E+00  7.59869910E+00 -1.51973982E+01  7.59869910E+00  7.59869910E+00
 -1.51973982E+01  7.59869910E+00  7.59869910E+00 -1.51973982E+01  7.59869910E+00
  7.59869910E+00 -1.51973982E+01  7.59869910E+00  7.59869910E+00 -1.51973982E+01
  7.59869910E+00  7.59869910E+00 -1.51973982E+01  7.59869910E+00  7.59869910E+00
 -1.51973982E+01  7.59869910E+00  7.59869910E+00 -1.51973982E+01  7.59869910E+00
  7.59869910E+00 -1.51973982E+01  7.59869910E+00  7.59869910E+00 -1.51973982E+01
  7.59869910E+00  7.59869910E+00 -1.51973982E+01  7.59869910E+00  7.59869910E+00
 -1.51973982E+01  7.59869910E+00  7.59869910E+00 -1.51973982E+01  7.59869910E+00
  7.59869910E+00 -1.51973982E+01  7.59869910E+00  7.59869910E+00 -1.51973982E+01
  7.59869910E+00  7.59869910E+00 -1.51973982E+01  7.59869910E+00  7.59869910E+00
 -1.51973982E+01  7.59869910E+00  7.59869910E+00 -1.51973982E+01  7.59869910E+00
  7.59869910E+00 -1.51973982E+01  7.59869910E+00  7.59869910E+00 -1.51973982E+01
  7.59869910E+00  7.59869910E+00 -1.51973982E+01  7.59869910E+00  7.59869910E+00
 -1.51973982E+01  7.59869910E+00  7.59869910E+00 -1.51973982E+01  7.59869910E+00
  7.59869910E+00 -1.51973982E+01  7.59869910E+00  7.59869910E+00 -1.51973982E+01
  7.59869910E+00  7.59869910E+00 -1.51973982E+01  7.59869910E+00  7.59869910E+00
 -1.51973982E+01  7.59869910E+00  7.59869910E+00 -1.51973982E+01  7.59869910E+00
  7.59869910E+00 -1.51973982E+01  7.59869910E+00  7.59869910E+00 -1.51973982E+01
  7.59869910E+00  7.59869910E+00 -1.51973982E+01  7.59869910E+00  7.59869910E+00
 -1.51973982E+01  7.59869910E+00  7.59869910E+00 -1.51973982E+01  7.59869910E+00
  7.59869910E+00 -1.51973982E+01  7.59869910E+00  7.59869910E+00 -1.51973982E+01
  7.59869910E+00  7.59869910E+00 -1.51973982E+01  7.59869910E+00  7.59869910E+00
 -1.51973982E+01  7.59869910E+00  7.59869910E+00 -1.51973982E+01  7.59869910E+00
  7.59869910E+00 -1.51973982E+01  7.59869910E+00  7.59869910E+00 -1.51973982E+01
  7.59869910E+00  7.59869910E+00 -1.51973982E+01  7.59869910E+00  7.59869910E+00
 -1.51973982E+01  7.59869910E+00  7.59869910E+00 -1.51973982E+01  7.59869910E+00
  7.59869910E+00 -1.51973982E+01  7.59869910E+00  7.59869910E+00 -1.51973982E+01
  7.59869910E+00  7.59869910E+00 -1.51973982E+01  7.59869910E+00  7.59869910E+00
 -1.51973982E+01  7.59869910E+00  7.59869910E+00 -1.51973982E+01  7.59869910E+00
  7.59869910E+00 -1.51973982E+01  7.59869910E+00  7.59869910E+00 -1.51973982E+01
  7.59869910E+00  7.59869910E+00 -1.51973982E+01  7.59869910E+00  7.59869910E+00
 -1.51973982E+01  7.59869910E+00  7.59869910E+00 -1.51973982E+01  7.59869910E+00
  7.59869910E+00 -1.51973982E+01  7.59869910E+00  7.59869910E+00 -1.51973982E+01
  7.59869910E+00  7.59869910E+00 -1.51973982E+01  7.59869910E+00  7.59869910E+00
 -1.51973982E+01  7.59869910E+00  7.59869910E+00 -1.51973982E+01  7.59869910E+00
  7.59869910E+00 -1.51973982E+01  7.59869910E+00  7.59869910E+00 -1.51973982E+01
  7.59869910E+00  7.59869910E+00 -1.51973982E+01  7.59869910E+00  7.59869910E+00
 -1.51973982E+01  7.59869910E+00  7.59869910E+00 -1.51973982E+01  7.59869910E+00
  7.59869910E+00 -1.51973982E+01  7.59869910E+00  7.59869910E+00 -1.51973982E+01
  7.59869910E+00  7.59869910E+00 -1.51973982E+01  7.59869910E+00  7.59869910E+00
 -1.51973982E+01  7.59869910E+00  7.59869910E+00 -1.51973982E+01  7.59869910E+00
  7.59869910E+00 -1.51973982E+01  7.59869910E+00  7.59869910E+00 -1.51973982E+01
  7.59869910E+00  7.59869910E+00 -1.51973982E+01  7.59869910E+00  7.59869910E+00
 -1.51973982E+01  7.59869910E+00  7.59869910E+00 -1.51973982E+01  7.59869910E+00
  7.59869910E+00 -1.51973982E+01  7.59869910E+00  7.59869910E+00 -1.51973982E+01
  7.59869910E+00  7.59869910E+00 -1.51973982E+01  7.59869910E+00  7.59869910E+00
 -1.51973982E+01  7.59869910E+00  7.59869910E+00 -1.51973982E+01  7.59869910E+00
  7.59869910E+00 -1.51973982E+01  7.59869910E+00  7.59869910E+00 -1.51973982E+01
  7.59869910E+00  7.59869910E+00 -1.51973982E+01  7.59869910E+00  7.59869910E+00
 -1.51973982E+01  7.59869910E+00  7.59869910E+00 -1.51973982E+01  7.59869910E+00
  7.59869910E+00 -1.51973982E+01  7.59869910E+00  7.59869910E+00 -1.51973982E+01
  7.59869910E+00  7.59869910E+00 -1.51973982E+01  7.59869910E+00  7.59869910E+00
 -1.51973982E+01  7.59869910E+00  7.59869910E+00 -1.51973982E+01  7.59869910E+00
  7.59869910E+00 -1.51973982E+01  7.59869910E+00  7.59869910E+00 -1.51973982E+01
  7.59869910E+00  7.59869910E+00 -1.51973982E+01  7.59869910E+00  7.59869910E+00
 -1.51973982E+01  7.59869910E+00  7.59869910E+00 -1.51973982E+01  7.59869910E+00
  7.59869910E+00 -1.51973982E+01  7.59869910E+00  7.59869910E+00 -1.51973982E+01
  7.59869910E+00  7.59869910E+00 -1.51973982E+01  7.59869910E+00  7.59869910E+00
 -1.51973982E+01  7.59869910E+00  7.59869910E+00 -1.51973982E+01  7.59869910E+00
  7.59869910E+00 -1.51973982E+01  7.59869910E+00  7.59869910E+00 -1.51973982E+01
  7.59869910E+00  7.59869910E+00 -1.51973982E+01  7.59869910E+00  7.59869910E+00
 -1.51973982E+01  7.59869910E+00  7.59869910E+00 -1.51973982E+01  7.59869910E+00
  7.59869910E+00 -1.51973982E+01  7.59869910E+00  7.59869910E+00 -1.51973982E+01
  7.59869910E+00  7.59869910E+00 -1.51973982E+01  7.59869910E+00  7.59869910E+00
 -1.51973982E+01  7.59869910E+00  7.59869910E+00 -1.51973982E+01  7.59869910E+00
  7.59869910E+00 -1.51973982E+01  7.59869910E+00  7.59869910E+00 -1.51973982E+01
  7.59869910E+00  7.59869910E+00 -1.51973982E+01  7.59869910E+00  7.59869910E+00
 -1.51973982E+01  7.59869910E+00  7.59869910E+00 -1.51973982E+01  7.59869910E+00
  7.59869910E+00 -1.51973982E+01  7.59869910E+00  7.59869910E+00 -1.51973982E+01
  7.59869910E+00  7.59869910E+00 -1.51973982E+01  7.59869910E+00  7.59869910E+00
 -1.51973982E+01  7.59869910E+00  7.59869910E+00 -1.51973982E+01  7.59869910E+00
  7.59869910E+00 -1.51973982E+01  7.59869910E+00  7.59869910E+00 -1.51973982E+01
  7.59869910E+00  7.59869910E+00 -1.51973982E+01  7.59869910E+00  7.59869910E+00
 -1.51973982E+01  7.59869910E+00  7.59869910E+00 -1.51973982E+01  7.59869910E+00
  7.59869910E+00 -1.51973982E+01  7.59869910E+00  7.59869910E+00 -1.51973982E+01
  7.59869910E+00  7.59869910E+00 -1.51973982E+01  7.59869910E+00  7.59869910E+00
 -1.51973982E+01  7.59869910E+00  7.59869910E+00 -1.51973982E+01  7.59869910E+00
  7.59869910E+00 -1.51973982E+01  7.59869910E+00  7.59869910E+00 -1.51973982E+01
  7.59869910E+00  7.59869910E+00 -1.51973982E+01  7.59869910E+00  7.59869910E+00
 -1.51973982E+01  7.59869910E+00  7.59869910E+00 -1.51973982E+01  7.59869910E+00
  7.59869910E+00 -1.51973982E+01  7.59869910E+00  7.59869910E+00 -1.51973982E+01
  7.59869910E+00  7.59869910E+00 -1.51973982E+01  7.59869910E+00  7.59869910E+00
 -1.51973982E+01  7.59869910E+00  7.59869910E+00 -1.51973982E+01  7.59869910E+00
  7.59869910E+00 -1.51973982E+01  7.59869910E+00  7.59869910E+00 -1.51973982E+01
  7.59869910E+00  7.59869910E+00 -1.51973982E+01  7.59869910E+00  7.59869910E+00
 -1.51973982E+01  7.59869910E+00  7.59869910E+00 -1.51973982E+01  7.59869910E+00
  7.59869910E+00 -1.51973982E+01  7.59869910E+00  7.59869910E+00 -1.51973982E+01
  7.59869910E+00  7.59869910E+00 -1.51973982E+01  7.59869910E+00  7.59869910E+00
 -1.51973982E+01  7.59869910E+00  7.59869910E+00 -1.51973982E+01  7.59869910E+00
  7.59869910E+00 -1.51973982E+01  7.59869910E+00  7.59869910E+00 -1.51973982E+01
  7.59869910E+00  7.59869910E+00 -1.51973982E+01  7.59869910E+00  7.59869910E+00
 -1.51973982E+01  7.59869910E+00  7.59869910E+00 -1.51973982E+01  7.59869910E+00
  7.59869910E+00 -1.51973982E+01  7.59869910E+00  7.59869910E+00 -1.51973982E+01
  7.59869910E+00  7.59869910E+00 -1.51973982E+01  7.59869910E+00  7.59869910E+00
 -1.51973982E+01  7.59869910E+00  7.59869910E+00 -1.51973982E+01  7.59869910E+00
  7.59869910E+00 -1.51973982E+01  7.59869910E+00  7.59869910E+00 -1.51973982E+01
  7.59869910E+00  7.59869910E+00 -1.51973982E+01  7.59869910E+00  7.59869910E+00
 -1.51973982E+01  7.59869910E+00  7.59869910E+00 -1.51973982E+01  7.59869910E+00
  7.59869910E+00 -1.51973982E+01  7.59869910E+00  7.59869910E+00 -1.51973982E+01
  7.59869910E+00  7.59869910E+00 -1.51973982E+01  7.59869910E+00  7.59869910E+00
 -1.51973982E+01  7.59869910E+00  7.59869910E+00 -1.51973982E+01  7.59869910E+00
  7.59869910E+00 -1.51973982E+01  7.59869910E+00  7.59869910E+00 -1.51973982E+01
  7.59869910E+00  7.59869910E+00 -1.51973982E+01  7.59869910E+00  7.59869910E+00
 -1.51973982E+01  7.59869910E+00  7.59869910E+00 -1.51973982E+01  7.59869910E+00
  7.59869910E+00 -1.51973982E+01  7.59869910E+00  7.59869910E+00 -1.51973982E+01
  7.59869910E+00  7.59869910E+00 -1.51973982E+01  7.59869910E+00  7.59869910E+00
 -1.51973982E+01  7.59869910E+00  7.59869910E+00 -1.51973982E+01  7.59869910E+00
  7.59869910E+00 -1.51973982E+01  7.59869910E+00  7.59869910E+00 -1.51973982E+01
  7.59869910E+00  7.59869910E+00 -1.51973982E+01  7.59869910E+00  7.59869910E+00
 -1.51973982E+01  7.59869910E+00  7.59869910E+00 -1.51973982E+01  7.59869910E+00
  7.59869910E+00 -1.51973982E+01  7.59869910E+00  7.59869910E+00 -1.51973982E+01
  7.59869910E+00  7.59869910E+00 -1.51973982E+01  7.59869910E+00  7.59869910E+00
 -1.51973982E+01  7.59869910E+00  7.59869910E+00 -1.51973982E+01  7.59869910E+00
  7.59869910E+00 -1.51973982E+01  7.59869910E+00  7.59869910E+00 -1.51973982E+01
  7.59869910E+00  7.59869910E+00 -1.51973982E+01  7.59869910E+00  7.59869910E+00
 -1.51973982E+01  7.59869910E+00  7.59869910E+00 -1.51973982E+01  7.59869910E+00
  7.59869910E+00 -1.51973982E+01  7.59869910E+00  7.59869910E+00 -1.51973982E+01
  7.59869910E+00  7.59869910E+00 -1.51973982E+01  7.59869910E+00  7.59869910E+00
 -1.51973982E+01  7.59869910E+00  7.59869910E+00 -1.51973982E+01  7.59869910E+00
  7.59869910E+00 -1.51973982E+01  7.59869910E+00  7.59869910E+00 -1.51973982E+01
  7.59869910E+00  7.59869910E+00 -1.51973982E+01  7.59869910E+00  7.59869910E+00
 -1.51973982E+01  7.59869910E+00  7.59869910E+00 -1.51973982E+01  7.59869910E+00
  7.59869910E+00 -1.51973982E+01  7.59869910E+00  7.59869910E+00 -1.51973982E+01
  7.59869910E+00  7.59869910E+00 -1.51973982E+01  7.59869910E+00  7.59869910E+00
 -1.51973982E+01  7.59869910E+00  7.59869910E+00 -1.51973982E+01  7.59869910E+00
  7.59869910E+00 -1.51973982E+01  7.59869910E+00  7.59869910E+00 -1.51973982E+01
  7.59869910E+00  7.59869910E+00 -1.51973982E+01  7.59869910E+00  7.59869910E+00
 -1.51973982E+01  7.59869910E+00  7.59869910E+00 -1.51973982E+01  7.59869910E+00
  7.59869910E+00 -1.51973982E+01  7.59869910E+00  7.59869910E+00 -1.51973982E+01
  7.59869910E+00  7.59869910E+00 -1.51973982E+01  7.59869910E+00  7.59869910E+00
 -1.51973982E+01  7.59869910E+00  7.59869910E+00 -1.51973982E+01  7.59869910E+00
  7.59869910E+00 -1.51973982E+01  7.59869910E+00  7.59869910E+00 -1.51973982E+01
  7.59869910E+00  7.59869910E+00 -1.51973982E+01  7.59869910E+00  7.59869910E+00
 -1.51973982E+01  7.59869910E+00  7.59869910E+00 -1.51973982E+01  7.59869910E+00
  7.59869910E+00 -1.51973982E+01  7.59869910E+00  7.59869910E+00 -1.51973982E+01
  7.59869910E+00  7.59869910E+00 -1.51973982E+01  7.59869910E+00  7.59869910E+00
 -1.51973982E+01  7.59869910E+00  7.59869910E+00 -1.51973982E+01  7.59869910E+00
  7.59869910E+00 -1.51973982E+01  7.59869910E+00  7.59869910E+00 -1.51973982E+01
  7.59869910E+00  7.59869910E+00 -1.51973982E+01  7.59869910E+00  7.59869910E+00
 -1.51973982E+01  7.59869910E+00  7.59869910E+00 -1.51973982E+01  7.59869910E+00
  7.59869910E+00 -1.51973982E+01  7.59869910E+00  7.59869910E+00 -1.51973982E+01
  7.59869910E+00  7.59869910E+00 -1.51973982E+01  7.59869910E+00  7.59869910E+00
 -1.51973982E+01  7.59869910E+00  7.59869910E+00 -1.51973982E+01  7.59869910E+00
  7.59869910E+00 -1.51973982E+01  7.59869910E+00  7.59869910E+00 -1.51973982E+01
  7.59869910E+00  7.59869910E+00 -1.51973982E+01  7.59869910E+00  7.59869910E+00
 -1.51973982E+01  7.59869910E+00  7.59869910E+00 -1.51973982E+01  7.59869910E+00
  7.59869910E+00 -1.51973982E+01  7.59869910E+00  7.59869910E+00 -1.51973982E+01
  7.59869910E+00  7.59869910E+00 -1.51973982E+01  7.59869910E+00  7.59869910E+00
 -1.51973982E+01  7.59869910E+00  7.59869910E+00 -1.51973982E+01  7.59869910E+00
  7.59869910E+00 -1.51973982E+01  7.59869910E+00  7.59869910E+00 -1.51973982E+01
  7.59869910E+00  7.59869910E+00 -1.51973982E+01  7.59869910E+00  7.59869910E+00
 -1.51973982E+01  7.59869910E+00  7.59869910E+00 -1.51973982E+01  7.59869910E+00
  7.59869910E+00 -1.51973982E+01  7.59869910E+00  7.59869910E+00 -1.51973982E+01
  7.59869910E+00  7.59869910E+00 -1.51973982E+01  7.59869910E+00  7.59869910E+00
 -1.51973982E+01  7.59869910E+00  7.59869910E+00 -1.51973982E+01  7.59869910E+00
  7.59869910E+00 -1.51973982E+01  7.59869910E+00  7.59869910E+00 -1.51973982E+01
  7.59869910E+00  7.59869910E+00 -1.51973982E+01  7.59869910E+00  7.59869910E+00
 -1.51973982E+01  7.59869910E+00  7.59869910E+00 -1.51973982E+01  7.59869910E+00
  7.59869910E+00 -1.51973982E+01  7.59869910E+00  7.59869910E+00 -1.51973982E+01
  7.59869910E+00  7.59869910E+00 -1.51973982E+01  7.59869910E+00  7.59869910E+00
 -1.51973982E+01  7.59869910E+00  7.59869910E+00 -1.51973982E+01  7.59869910E+00
  7.59869910E+00 -1.51973982E+01  7.59869910E+00  7.59869910E+00 -1.51973982E+01
  7.59869910E+00  7.59869910E+00 -1.51973982E+01  7.59869910E+00  7.59869910E+00
 -1.51973982E+01  7.59869910E+00  7.59869910E+00 -1.51973982E+01  7.59869910E+00
  7.59869910E+00 -1.51973982E+01  7.59869910E+00  7.59869910E+00 -1.51973982E+01
  7.59869910E+00  7.59869910E+00 -1.51973982E+01  7.59869910E+00  7.59869910E+00
 -1.51973982E+01  7.59869910E+00  7.59869910E+00 -1.51973982E+01  7.59869910E+00
  7.59869910E+00 -1.51973982E+01  7.59869910E+00  7.59869910E+00 -1.51973982E+01
  7.59869910E+00  7.59869910E+00 -1.51973982E+01  7.59869910E+00  7.59869910E+00
 -1.51973982E+01  7.59869910E+00  7.59869910E+00 -1.51973982E+01  7.59869910E+00
  7.59869910E+00 -1.51973982E+01  7.59869910E+00  7.59869910E+00 -1.51973982E+01
  7.59869910E+00  7.59869910E+00 -1.51973982E+01  7.59869910E+00  7.59869910E+00
 -1.51973982E+01  7.59869910E+00  7.59869910E+00 -1.51973982E+01  7.59869910E+00
  7.59869910E+00 -1.51973982E+01  7.59869910E+00  7.59869910E+00 -1.51973982E+01
  7.59869910E+00  7.59869910E+00 -1.51973982E+01  7.59869910E+00  7.59869910E+00
 -1.51973982E+01  7.59869910E+00  7.59869910E+00 -1.51973982E+01  7.59869910E+00
  7.59869910E+00 -1.51973982E+01  7.59869910E+00  7.59869910E+00 -1.51973982E+01
  7.59869910E+00  7.59869910E+00 -1.51973982E+01  7.59869910E+00  7.59869910E+00
 -1.51973982E+01  7.59869910E+00  7.59869910E+00 -1.51973982E+01  7.59869910E+00
  7.59869910E+00 -1.51973982E+01  7.59869910E+00  7.59869910E+00 -1.51973982E+01
  7.59869910E+00  7.59869910E+00 -1.51973982E+01  7.59869910E+00  7.59869910E+00
 -1.51973982E+01  7.59869910E+00  7.59869910E+00 -1.51973982E+01  7.59869910E+00
  7.59869910E+00 -1.51973982E+01  7.59869910E+00  7.59869910E+00 -1.51973982E+01
  7.59869910E+00  7.59869910E+00 -1.51973982E+01  7.59869910E+00  7.59869910E+00
 -1.51973982E+01  7.59869910E+00  7.59869910E+00 -1.51973982E+01  7.59869910E+00
  7.59869910E+00 -1.51973982E+01  7.59869910E+00  7.59869910E+00 -1.51973982E+01
  7.59869910E+00  7.59869910E+00 -1.51973982E+01  7.59869910E+00  7.59869910E+00
 -1.51973982E+01  7.59869910E+00  7.59869910E+00 -1.51973982E+01  7.59869910E+00
  7.59869910E+00 -1.51973982E+01  7.59869910E+00  7.59869910E+00 -1.51973982E+01
  7.59869910E+00  7.59869910E+00 -1.51973982E+01  7.59869910E+00  7.59869910E+00
 -1.51973982E+01  7.59869910E+00  7.59869910E+00 -1.51973982E+01  7.59869910E+00
  7.59869910E+00 -1.51973982E+01  7.59869910E+00  7.59869910E+00 -1.51973982E+01
  7.59869910E+00  7.59869910E+00 -1.51973982E+01  7.59869910E+00  7.59869910E+00
 -1.51973982E+01  7.59869910E+00  7.59869910E+00 -1.51973982E+01  7.59869910E+00
  7.59869910E+00 -1.51973982E+01  7.59869910E+00  7.59869910E+00 -1.51973982E+01
  7.59869910E+00  7.59869910E+00 -1.51973982E+01  7.59869910E+00  7.59869910E+00
 -1.51973982E+01  7.59869910E+00  7.59869910E+00 -1.51973982E+01  7.59869910E+00
  7.59869910E+00 -1.51973982E+01  7.59869910E+00  7.59869910E+00 -1.51973982E+01
  7.59869910E+00  7.59869910E+00 -1.51973982E+01  7.59869910E+00  7.59869910E+00
 -1.51973982E+01  7.59869910E+00  7.59869910E+00 -1.51973982E+01  7.59869910E+00
  7.59869910E+00 -1.51973982E+01  7.59869910E+00  7.59869910E+00 -1.51973982E+01
  7.59869910E+00  7.59869910E+00 -1.51973982E+01  7.59869910E+00  7.59869910E+00
 -1.51973982E+01  7.59869910E+00  7.59869910E+00 -1.51973982E+01  7.59869910E+00
  7.59869910E+00 -1.51973982E+01  7.59869910E+00  7.59869910E+00 -1.51973982E+01
  7.59869910E+00  7.59869910E+00 -1.51973982E+01  7.59869910E+00  7.59869910E+00
 -1.51973982E+01  7.59869910E+00  7.59869910E+00 -1.51973982E+01  7.59869910E+00
  7.59869910E+00 -1.51973982E+01  7.59869910E+00  7.59869910E+00 -1.51973982E+01
  7.59869910E+00  7.59869910E+00 -1.51973982E+01  7.59869910E+00  7.59869910E+00
 -1.51973982E+01  7.59869910E+00  7.59869910E+00 -1.51973982E+01  7.59869910E+00
  7.59869910E+00 -1.51973982E+01  7.59869910E+00  7.59869910E+00 -1.51973982E+01
  7.59869910E+00  7.59869910E+00 -1.51973982E+01  7.59869910E+00  7.59869910E+00
 -1.51973982E+01  7.59869910E+00  7.59869910E+00 -1.51973982E+01  7.59869910E+00
  7.59869910E+00 -1.51973982E+01  7.59869910E+00  7.59869910E+00 -1.51973982E+01
  7.59869910E+00  7.59869910E+00 -1.51973982E+01  7.59869910E+00  7.59869910E+00
 -1.51973982E+01  7.59869910E+00  7.59869910E+00 -1.51973982E+01  7.59869910E+00
  7.59869910E+00 -1.51973982E+01  7.59869910E+00  7.59869910E+00 -1.51973982E+01
  7.59869910E+00  7.59869910E+00 -1.51973982E+01  7.59869910E+00  7.59869910E+00
 -1.51973982E+01  7.59869910E+00  7.59869910E+00 -1.51973982E+01  7.59869910E+00
  7.59869910E+00 -1.51973982E+01  7.59869910E+00  7.59869910E+00 -1.51973982E+01
  7.59869910E+00  7.59869910E+00 -1.51973982E+01  7.59869910E+00  7.59869910E+00
 -1.51973982E+01  7.59869910E+00  7.59869910E+00 -1.51973982E+01  7.59869910E+00
  7.59869910E+00 -1.51973982E+01  7.59869910E+00  7.59869910E+00 -1.51973982E+01
  7.59869910E+00  7.59869910E+00 -1.51973982E+01  7.59869910E+00  7.59869910E+00
 -1.51973982E+01  7.59869910E+00  7.59869910E+00 -1.51973982E+01  7.59869910E+00
  7.59869910E+00 -1.51973982E+01  7.59869910E+00  7.59869910E+00 -1.51973982E+01
  7.59869910E+00  7.59869910E+00 -1.51973982E+01  7.59869910E+00  7.59869910E+00
 -1.51973982E+01  7.59869910E+00  7.59869910E+00 -1.51973982E+01  7.59869910E+00
  7.59869910E+00 -1.51973982E+01  7.59869910E+00  7.59869910E+00 -1.51973982E+01
  7.59869910E+00  7.59869910E+00 -1.51973982E+01  7.59869910E+00  7.59869910E+00
 -1.51973982E+01  7.59869910E+00  7.59869910E+00 -1.51973982E+01  7.59869910E+00
  7.59869910E+00 -1.51973982E+01  7.59869910E+00  7.59869910E+00 -1.51973982E+01
  7.59869910E+00  7.59869910E+00 -1.51973982E+01  7.59869910E+00  7.59869910E+00
 -1.51973982E+01  7.59869910E+00  7.59869910E+00 -1.51973982E+01  7.59869910E+00
  7.59869910E+00 -1.51973982E+01  7.59869910E+00  7.59869910E+00 -1.51973982E+01
  7.59869910E+00  7.59869910E+00 -1.51973982E+01  7.59869910E+00  7.59869910E+00
 -1.51973982E+01  7.59869910E+00  7.59869910E+00 -1.51973982E+01  7.59869910E+00
  7.59869910E+00 -1.51973982E+01  7.59869910E+00  7.59869910E+00 -1.51973982E+01
  7.59869910E+00  7.59869910E+00 -1.51973982E+01  7.59869910E+00  7.59869910E+00
 -1.51973982E+01  7.59869910E+00  7.59869910E+00 -1.51973982E+01  7.59869910E+00
  7.59869910E+00 -1.51973982E+01  7.59869910E+00  7.59869910E+00 -1.51973982E+01
  7.59869910E+00  7.59869910E+00 -1.51973982E+01  7.59869910E+00  7.59869910E+00
 -1.51973982E+01  7.59869910E+00  7.59869910E+00 -1.51973982E+01  7.59869910E+00
  7.59869910E+00 -1.51973982E+01  7.59869910E+00  7.59869910E+00 -1.51973982E+01
  7.59869910E+00  7.59869910E+00 -1.51973982E+01  7.59869910E+00  7.59869910E+00
 -1.51973982E+01  7.59869910E+00  7.59869910E+00 -1.51973982E+01  7.59869910E+00
  7.59869910E+00 -1.51973982E+01  7.59869910E+00  7.59869910E+00 -1.51973982E+01
  7.59869910E+00  7.59869910E+00 -1.51973982E+01  7.59869910E+00  7.59869910E+00
 -1.51973982E+01  7.59869910E+00  7.59869910E+00 -1.51973982E+01  7.59869910E+00
  7.59869910E+00 -1.51973982E+01  7.59869910E+00  7.59869910E+00 -1.51973982E+01
  7.59869910E+00  7.59869910E+00 -1.51973982E+01  7.59869910E+00  7.59869910E+00
 -1.51973982E+01  7.59869910E+00  7.59869910E+00 -1.51973982E+01  7.59869910E+00
  7.59869910E+00 -1.51973982E+01  7.59869910E+00  7.59869910E+00 -1.51973982E+01
  7.59869910E+00  7.59869910E+00 -1.51973982E+01  7.59869910E+00  7.59869910E+00
 -1.51973982E+01  7.59869910E+00  7.59869910E+00 -1.51973982E+01  7.59869910E+00
  7.59869910E+00 -1.51973982E+01  7.59869910E+00  7.59869910E+00 -1.51973982E+01
  7.59869910E+00  7.59869910E+00 -1.51973982E+01  7.59869910E+00  7.59869910E+00
 -1.51973982E+01  7.59869910E+00  7.59869910E+00 -1.51973982E+01  7.59869910E+00
  7.59869910E+00 -1.51973982E+01  7.59869910E+00  7.59869910E+00 -1.51973982E+01
  7.59869910E+00  7.59869910E+00 -1.51973982E+01  7.59869910E+00  7.59869910E+00
 -1.51973982E+01  7.59869910E+00  7.59869910E+00 -1.51973982E+01  7.59869910E+00
  7.59869910E+00 -1.51973982E+01  7.59869910E+00  7.59869910E+00 -1.51973982E+01
  7.59869910E+00  7.59869910E+00 -1.51973982E+01  7.59869910E+00  7.59869910E+00
 -1.51973982E+01  7.59869910E+00  7.59869910E+00 -1.51973982E+01  7.59869910E+00
  7.59869910E+00 -1.51973982E+01  7.59869910E+00  7.59869910E+00 -1.51973982E+01
  7.59869910E+00  7.59869910E+00 -1.51973982E+01  7.59869910E+00  7.59869910E+00
 -1.51973982E+01  7.59869910E+00  7.59869910E+00 -1.51973982E+01  7.59869910E+00
  7.59869910E+00 -1.51973982E+01  7.59869910E+00  7.59869910E+00 -1.51973982E+01
  7.59869910E+00  7.59869910E+00 -1.51973982E+01  7.59869910E+00  7.59869910E+00
 -1.51973982E+01  7.59869910E+00  7.59869910E+00 -1.51973982E+01  7.59869910E+00
  7.59869910E+00 -1.51973982E+01  7.59869910E+00  7.59869910E+00 -1.51973982E+01
  7.59869910E+00  7.59869910E+00 -1.51973982E+01  7.59869910E+00  7.59869910E+00
 -1.51973982E+01  7.59869910E+00  7.59869910E+00 -1.51973982E+01  7.59869910E+00
  7.59869910E+00 -1.51973982E+01  7.59869910E+00  7.59869910E+00 -1.51973982E+01
  7.59869910E+00  7.59869910E+00 -1.51973982E+01  7.59869910E+00  7.59869910E+00
 -1.51973982E+01  7.59869910E+00  7.59869910E+00 -1.51973982E+01  7.59869910E+00
  7.59869910E+00 -1.51973982E+01  7.59869910E+00  7.59869910E+00 -1.51973982E+01
  7.59869910E+00  7.59869910E+00 -1.51973982E+01  7.59869910E+00  7.59869910E+00
 -1.51973982E+01  7.59869910E+00  7.59869910E+00 -1.51973982E+01  7.59869910E+00
  7.59869910E+00 -1.51973982E+01  7.59869910E+00  7.59869910E+00 -1.51973982E+01
  7.59869910E+00  7.59869910E+00 -1.51973982E+01  7.59869910E+00  7.59869910E+00
 -1.51973982E+01  7.59869910E+00  7.59869910E+00 -1.51973982E+01  7.59869910E+00
  7.59869910E+00 -1.51973982E+01  7.59869910E+00  7.59869910E+00 -1.51973982E+01
  7.59869910E+00  7.59869910E+00 -1.51973982E+01  7.59869910E+00  7.59869910E+00
 -1.51973982E+01  7.59869910E+00  7.59869910E+00 -1.51973982E+01  7.59869910E+00
  7.59869910E+00 -1.51973982E+01  7.59869910E+00  7.59869910E+00 -1.51973982E+01
  7.59869910E+00  7.59869910E+00 -1.51973982E+01  7.59869910E+00  7.59869910E+00
 -1.51973982E+01  7.59869910E+00  7.59869910E+00 -1.51973982E+01  7.59869910E+00
  7.59869910E+00 -1.51973982E+01  7.59869910E+00  7.59869910E+00 -1.51973982E+01
  7.59869910E+00  7.59869910E+00 -1.51973982E+01  7.59869910E+00  7.59869910E+00
 -1.51973982E+01  7.59869910E+00  7.59869910E+00 -1.51973982E+01  7.59869910E+00
  7.59869910E+00 -1.51973982E+01  7.59869910E+00  7.59869910E+00 -1.51973982E+01
  7.59869910E+00  7.59869910E+00 -1.51973982E+01  7.59869910E+00  7.59869910E+00
 -1.51973982E+01  7.59869910E+00  7.59869910E+00 -1.51973982E+01  7.59869910E+00
  7.59869910E+00 -1.51973982E+01  7.59869910E+00  7.59869910E+00 -1.51973982E+01
  7.59869910E+00  7.59869910E+00 -1.51973982E+01  7.59869910E+00  7.59869910E+00
 -1.51973982E+01  7.59869910E+00  7.59869910E+00 -1.51973982E+01  7.59869910E+00
  7.59869910E+00 -1.51973982E+01  7.59869910E+00  7.59869910E+00 -1.51973982E+01
  7.59869910E+00  7.59869910E+00 -1.51973982E+01  7.59869910E+00  7.59869910E+00
 -1.51973982E+01  7.59869910E+00  7.59869910E+00 -1.51973982E+01  7.59869910E+00
  7.59869910E+00 -1.51973982E+01  7.59869910E+00  7.59869910E+00 -1.51973982E+01
  7.59869910E+00  7.59869910E+00 -1.51973982E+01  7.59869910E+00  7.59869910E+00
 -1.51973982E+01  7.59869910E+00  7.59869910E+00 -1.51973982E+01  7.59869910E+00
  7.59869910E+00 -1.51973982E+01  7.59869910E+00  7.59869910E+00 -1.51973982E+01
  7.59869910E+00  7.59869910E+00 -1.51973982E+01  7.59869910E+00  7.59869910E+00
 -1.51973982E+01  7.59869910E+00  7.59869910E+00 -1.51973982E+01  7.59869910E+00
  7.59869910E+00 -1.51973982E+01  7.59869910E+00  7.59869910E+00 -1.51973982E+01
  7.59869910E+00  7.59869910E+00 -1.51973982E+01  7.59869910E+00  7.59869910E+00
 -1.51973982E+01  7.59869910E+00  7.59869910E+00 -1.51973982E+01  7.59869910E+00
  7.59869910E+00 -1.51973982E+01  7.59869910E+00  7.59869910E+00 -1.51973982E+01
  7.59869910E+00  7.59869910E+00 -1.51973982E+01  7.59869910E+00  7.59869910E+00
 -1.51973982E+01  7.59869910E+00  7.59869910E+00 -1.51973982E+01  7.59869910E+00
  7.59869910E+00 -1.51973982E+01  7.59869910E+00  7.59869910E+00 -1.51973982E+01
  7.59869910E+00  7.59869910E+00 -1.51973982E+01  7.59869910E+00  7.59869910E+00
 -1.51973982E+01  7.59869910E+00  7.59869910E+00 -1.51973982E+01  7.59869910E+00
  7.59869910E+00 -1.51973982E+01  7.59869910E+00  7.59869910E+00 -1.51973982E+01
  7.59869910E+00  7.59869910E+00 -1.51973982E+01  7.59869910E+00  7.59869910E+00
 -1.51973982E+01  7.59869910E+00  7.59869910E+00 -1.51973982E+01  7.59869910E+00
  7.59869910E+00 -1.51973982E+01  7.59869910E+00  7.59869910E+00 -1.51973982E+01
  7.59869910E+00  7.59869910E+00 -1.51973982E+01  7.59869910E+00  7.59869910E+00
 -1.51973982E+01  7.59869910E+00  7.59869910E+00 -1.51973982E+01  7.59869910E+00
  7.59869910E+00 -1.51973982E+01  7.59869910E+00  7.59869910E+00 -1.51973982E+01
  7.59869910E+00  7.59869910E+00 -1.51973982E+01  7.59869910E+00  7.59869910E+00
 -1.51973982E+01  7.59869910E+00  7.59869910E+00 -1.51973982E+01  7.59869910E+00
  7.59869910E+00 -1.51973982E+01  7.59869910E+00  7.59869910E+00 -1.51973982E+01
  7.59869910E+00  7.59869910E+00 -1.51973982E+01  7.59869910E+00  7.59869910E+00
 -1.51973982E+01  7.59869910E+00  7.59869910E+00
%FLAG ATOMIC_NUMBER                                                             
%FORMAT(10I8)                                                                   
       7       1       1       1       6       1       1       6       8       7
       1       6       1       6       1       1       6       6       1       6
       1       6       8       1       6       1       6       1       6       8
       7       1       6       1       6       1       1       6       8       8
       6       8       7       6       1       1       6       1       1       6
       1       1       6       1       6       8       7       1       6       1
       6       1       1       6       1       1       6       8       8       6
       8       7       1       6       1       6       1       6       1       1
       1       8       1       6       8       7       1       6       1       1
       6       8       7       1       6       1       6       1       6       1
       1       1       8       1       6       8       7       1       6       1
       6       1       1       6       6       1       7       1       6       6
       1       6       1       6       1       6       1       6       6       8
       7       1       6       1       1       6       8       8      11      11
       8       1       1       8       1       1       8       1       1       8
       1       1       8       1       1       8       1       1       8       1
       1       8       1       1       8       1       1       8       1       1
       8       1       1       8       1       1       8       1       1       8
       1       1       8       1       1       8       1       1       8       1
       1       8       1       1       8       1       1       8       1       1
       8       1       1       8       1       1       8       1       1       8
       1       1       8       1       1       8       1       1       8       1
       1       8       1       1       8       1       1       8       1       1
       8       1       1       8       1       1       8       1       1       8
       1       1       8       1       1       8       1       1       8       1
       1       8       1       1       8       1       1       8       1       1
       8       1       1       8       1       1       8       1       1       8
       1       1       8       1       1       8       1       1       8       1
       1       8       1       1       8       1       1       8       1       1
       8       1       1       8       1       1       8       1       1       8
       1       1       8       1       1       8       1       1       8       1
       1       8       1       1       8       1       1       8       1       1
       8       1       1       8       1       1       8       1       1       8
       1       1       8       1       1       8       1       1       8       1
       1       8       1       1       8       1       1       8       1       1
       8       1       1       8       1       1       8       1       1       8
       1       1       8       1       1       8       1       1       8       1
       1       8       1       1       8       1       1       8       1       1
       8       1       1       8       1       1       8       1       1       8
       1       1       8       1       1       8       1       1       8       1
       1       8       1       1       8       1       1       8       1       1
       8       1       1       8       1       1       8       1       1       8
       1       1       8       1       1       8       1       1       8       1
       1       8       1       1       8       1       1       8       1       1
       8       1       1       8       1       1       8       1       1       8
       1       1       8       1       1       8       1       1       8       1
       1       8       1       1       8       1       1       8       1       1
       8       1       1       8       1       1       8       1       1       8
       1       1       8       1       1       8       1       1       8       1
       1       8       1       1       8       1       1       8       1       1
       8       1       1       8       1       1       8       1       1       8
       1       1       8       1       1       8       1       1       8       1
       1       8       1       1       8       1       1       8       1       1
       8       1       1       8       1       1       8       1       1       8
       1       1       8       1       1       8       1       1       8       1
       1       8       1       1       8       1       1       8       1       1
       8       1       1       8       1       1       8       1       1       8
       1       1       8       1       1       8       1       1       8       1
       1       8       1       1       8       1       1       8       1       1
       8       1       1       8       1       1       8       1       1       8
       1       1       8       1       1       8       1       1       8       1
       1       8       1       1       8       1       1       8       1       1
       8       1       1       8       1       1       8       1       1       8
       1       1       8       1       1       8       1       1       8       1
       1       8       1       1       8       1       1       8       1       1
       8       1       1       8       1       1       8       1       1       8
       1       1       8       1       1       8       1       1       8       1
       1       8       1       1       8       1       1       8       1       1
       8       1       1       8       1       1       8       1       1       8
       1       1       8       1       1       8       1       1       8       1
       1       8       1       1       8       1       1       8       1       1
       8       1       1       8       1       1       8       1       1       8
       1       1       8       1       1       8       1       1       8       1
       1       8       1       1       8       1       1       8       1       1
       8       1       1       8       1       1       8       1       1       8
       1       1       8       1       1       8       1       1       8       1
       1       8       1       1       8       1       1       8       1       1
       8       1       1       8       1       1       8       1       1       8
       1       1       8       1       1       8       1       1       8       1
       1       8       1       1       8       1       1       8       1       1
       8       1       1       8       1       1       8       1       1       8
       1       1       8       1       1       8       1       1       8       1
       1       8       1       1       8       1       1       8       1       1
       8       1       1       8       1       1       8       1       1       8
       1       1       8       1       1       8       1       1       8       1
       1       8       1       1       8       1       1       8       1       1
       8       1       1       8       1       1       8       1       1       8
       1       1       8       1       1       8       1       1       8       1
       1       8       1       1       8       1       1       8       1       1
       8       1       1       8       1       1       8       1       1       8
       1       1       8       1       1       8       1       1       8       1
       1       8       1       1       8       1       1       8       1       1
       8       1       1       8       1       1       8       1       1       8
       1       1       8       1       1       8       1       1       8       1
       1       8       1       1       8       1       1       8       1       1
       8       1       1       8       1       1       8       1       1       8
       1       1       8       1       1       8       1       1       8       1
       1       8       1       1       8       1       1       8       1       1
       8       1       1       8       1       1       8       1       1       8
       1       1       8       1       1       8       1       1       8       1
       1       8       1       1       8       1       1       8       1       1
       8       1       1       8       1       1       8       1       1       8
       1       1       8       1       1       8       1       1       8       1
       1       8       1       1       8       1       1       8       1       1
       8       1       1       8       1       1       8       1       1       8
       1       1       8       1       1       8       1       1       8       1
       1       8       1       1       8       1       1       8       1       1
       8       1       1       8       1       1       8       1       1       8
       1       1       8       1       1       8       1       1       8       1
       1       8       1       1       8       1       1       8       1       1
       8       1       1       8       1       1       8       1       1       8
       1       1       8       1       1       8       1       1       8       1
       1       8       1       1       8       1       1       8       1       1
       8       1       1       8       1       1       8       1       1       8
       1       1       8       1       1       8       1       1       8       1
       1       8       1       1       8       1       1       8       1       1
       8       1       1       8       1       1       8       1       1       8
       1       1       8       1       1       8       1       1       8       1
       1       8       1       1       8       1       1       8       1       1
       8       1       1       8       1       1       8       1       1       8
       1       1       8       1       1       8       1       1       8       1
       1       8       1       1       8       1       1       8       1       1
       8       1       1       8       1       1       8       1       1       8
       1       1       8       1       1       8       1       1       8       1
       1       8       1       1       8       1       1       8       1       1
       8       1       1       8       1       1       8       1       1       8
       1       1       8       1       1       8       1       1       8       1
       1       8       1       1       8       1       1       8       1       1
       8       1       1       8       1       1       8       1       1       8
       1       1       8       1       1       8       1       1       8       1
       1       8       1       1       8       1       1       8       1       1
       8       1       1       8       1       1       8       1       1       8
       1       1       8       1       1       8       1       1       8       1
       1       8       1       1       8       1       1       8       1       1
       8       1       1       8       1       1       8       1       1       8
       1       1       8       1       1       8       1       1       8       1
       1       8       1       1       8       1       1       8       1       1
       8       1       1       8       1       1       8       1       1       8
       1       1       8       1       1       8       1       1       8       1
       1       8       1       1       8       1       1       8       1       1
       8       1       1       8       1       1       8       1       1       8
       1       1       8       1       1       8       1       1       8       1
       1       8       1       1       8       1       1       8       1       1
       8       1       1       8       1       1       8       1       1       8
       1       1       8       1       1       8       1       1       8       1
       1       8       1       1       8       1       1       8       1       1
       8       1       1       8       1       1       8       1       1       8
       1       1       8       1       1       8       1       1       8       1
       1       8       1       1       8       1       1       8       1       1
       8       1       1       8       1       1       8       1       1       8
       1       1       8       1       1       8       1       1       8       1
       1       8       1       1       8       1       1       8       1       1
       8       1       1       8       1       1       8       1       1       8
       1       1       8       1       1       8       1       1       8       1
       1       8       1       1       8       1       1       8       1       1
       8       1       1       8       1       1       8       1       1       8
       1       1       8       1       1       8       1       1       8       1
       1       8       1       1       8       1       1       8       1       1
       8       1       1       8       1       1       8       1       1       8
       1       1       8       1       1       8       1       1       8       1
       1       8       1       1       8       1       1       8       1       1
       8       1       1       8       1       1       8       1       1       8
       1       1       8       1       1       8       1       1       8       1
       1       8       1       1       8       1       1       8       1       1
       8       1       1       8       1       1       8       1       1       8
       1       1       8       1       1       8       1       1       8       1
       1       8       1       1       8       1       1       8       1       1
       8       1       1       8       1       1       8       1       1       8
       1       1       8       1       1       8       1       1       8       1
       1       8       1       1       8       1       1       8       1       1
       8       1       1       8       1       1       8       1       1       8
       1       1       8       1       1       8       1       1       8       1
       1       8       1       1       8       1       1       8       1       1
       8       1       1       8       1       1       8       1       1       8
       1       1       8       1       1       8       1       1       8       1
       1       8       1       1       8       1       1       8       1       1
       8       1       1       8       1       1       8       1       1       8
       1       1       8       1       1       8       1       1       8       1
       1       8       1       1       8       1       1       8       1       1
       8       1       1       8       1       1       8       1       1       8
       1       1       8       1       1       8       1       1       8       1
       1       8       1       1       8       1       1       8       1       1
       8       1       1       8       1       1       8       1       1       8
       1       1       8       1       1       8       1       1       8       1
       1       8       1       1       8       1       1       8       1       1
       8       1       1       8       1       1       8       1       1       8
       1       1       8       1       1       8       1       1       8       1
       1       8       1       1       8       1       1       8       1       1
       8       1       1       8       1       1       8       1       1       8
       1       1       8       1       1       8       1       1       8       1
       1       8       1       1       8       1       1       8       1       1
       8       1       1       8       1       1       8       1       1       8
       1       1       8       1       1       8       1       1       8       1
       1       8       1       1       8       1       1       8       1       1
       8       1       1       8       1       1       8       1       1       8
       1       1       8       1       1       8       1       1       8       1
       1       8       1       1       8       1       1       8       1       1
       8       1       1       8       1       1       8       1       1       8
       1       1       8       1       1       8       1       1       8       1
       1       8       1       1       8       1       1       8       1       1
       8       1       1       8       1       1       8       1       1       8
       1       1       8       1       1       8       1       1       8       1
       1       8       1       1       8       1       1       8       1       1
       8       1       1       8       1       1       8       1       1       8
       1       1       8       1       1       8       1       1       8       1
       1       8       1       1       8       1       1       8       1       1
       8       1       1       8       1       1       8       1       1       8
       1       1       8       1       1       8       1       1       8       1
       1       8       1       1       8       1       1       8       1       1
       8       1       1       8       1       1       8       1       1       8
       1       1       8       1       1       8       1       1       8       1
       1       8       1       1       8       1       1       8       1       1
       8       1       1       8       1       1       8       1       1       8
       1       1       8       1       1       8       1       1       8       1
       1       8       1       1       8       1       1       8       1       1
       8       1       1       8       1       1       8       1       1       8
       1       1       8       1       1       8       1       1       8       1
       1       8       1       1       8       1       1       8       1       1
       8       1       1       8       1       1       8       1       1       8
       1       1       8       1       1       8       1       1       8       1
       1       8       1       1       8       1       1       8       1       1
       8       1       1       8       1       1       8       1       1       8
       1       1       8       1       1       8       1       1       8       1
       1       8       1       1       8       1       1       8       1       1
       8       1       1       8       1       1       8       1       1       8
       1       1       8       1       1       8       1       1       8       1
       1       8       1       1       8       1       1       8       1       1
       8       1       1       8       1       1       8       1       1       8
       1       1       8       1       1       8       1       1       8       1
       1       8       1       1       8       1       1       8       1       1
       8       1       1       8       1       1       8       1       1       8
       1       1       8       1       1       8       1       1       8       1
       1       8       1       1       8       1       1       8       1       1
       8       1       1       8       1       1       8       1       1       8
       1       1       8       1       1       8       1       1       8       1
       1       8       1       1       8       1       1       8       1       1
       8       1       1       8       1       1       8       1       1       8
       1       1       8       1       1       8       1       1       8       1
       1       8       1       1       8       1       1       8       1       1
       8       1       1       8       1       1       8       1       1       8
       1       1       8       1       1       8       1       1       8       1
       1       8       1       1       8       1       1       8       1       1
       8       1       1       8       1       1       8       1       1       8
       1       1       8       1       1       8       1       1       8       1
       1       8       1       1       8       1       1       8       1       1
       8       1       1       8       1       1       8       1       1       8
       1       1       8       1       1       8       1       1       8       1
       1       8       1       1       8       1       1       8       1       1
       8       1       1       8       1       1       8       1       1       8
       1       1       8       1       1       8       1       1       8       1
       1       8       1       1       8       1       1       8       1       1
       8       1       1       8       1       1       8       1       1       8
       1       1       8       1       1       8       1       1       8       1
       1       8       1       1       8       1       1       8       1       1
       8       1       1       8       1       1       8       1       1       8
       1       1       8       1       1       8       1       1       8       1
       1       8       1       1       8       1       1       8       1       1
       8       1       1       8       1       1       8       1       1       8
       1       1       8       1       1       8       1       1       8       1
       1       8       1       1       8       1       1       8       1       1
       8       1       1       8       1       1       8       1       1       8
       1       1       8       1       1       8       1       1       8       1
       1       8       1       1       8       1       1       8       1       1
       8       1       1       8       1       1       8       1       1       8
       1       1       8       1       1       8       1       1       8       1
       1       8       1       1       8       1       1       8       1       1
       8       1       1       8       1       1       8       1       1       8
       1       1       8       1       1       8       1       1       8       1
       1       8       1       1       8       1       1       8       1       1
       8       1       1       8       1       1       8       1       1       8
       1       1       8       1       1       8       1       1       8       1
       1       8       1       1       8       1       1       8       1       1
       8       1       1       8       1       1       8       1       1       8
       1       1       8       1       1       8       1       1       8       1
       1       8       1       1       8       1       1       8       1       1
       8       1       1       8       1       1       8       1       1       8
       1       1       8       1       1       8       1       1       8       1
       1       8       1       1       8       1       1       8       1       1
       8       1       1       8       1       1       8       1       1       8
       1       1       8       1       1       8       1       1       8       1
       1       8       1       1       8       1       1       8       1       1
       8       1       1       8       1       1       8       1       1       8
       1       1       8       1       1       8       1       1       8       1
       1       8       1       1       8       1       1       8       1       1
       8       1       1       8       1       1       8       1       1       8
       1       1       8       1       1       8       1       1       8       1
       1       8       1       1       8       1       1       8       1       1
       8       1       1       8       1       1       8       1       1       8
       1       1       8       1       1       8       1       1       8       1
       1       8       1       1       8       1       1       8       1       1
       8       1       1       8       1       1       8       1       1       8
       1       1       8       1       1       8       1       1       8       1
       1       8       1       1       8       1       1       8       1       1
       8       1       1       8       1       1       8       1       1       8
       1       1       8       1       1       8       1       1       8       1
       1       8       1       1       8       1       1       8       1       1
       8       1       1       8       1       1       8       1       1       8
       1       1       8       1       1       8       1       1       8       1
       1       8       1       1       8       1       1       8       1       1
       8       1       1       8       1       1       8       1       1       8
       1       1       8       1       1       8       1       1       8       1
       1       8       1       1       8       1       1       8       1       1
       8       1       1       8       1       1       8       1       1       8
       1       1       8       1       1       8       1       1       8       1
       1       8       1       1       8       1       1       8       1       1
       8       1       1       8       1       1       8       1       1       8
       1       1       8       1       1       8       1       1       8       1
       1       8       1       1       8       1       1       8       1       1
       8       1       1       8       1       1       8       1       1       8
       1       1       8       1       1       8       1       1       8       1
       1       8       1       1       8       1       1       8       1       1
       8       1       1       8       1       1       8       1       1       8
       1       1       8       1       1       8       1       1       8       1
       1       8       1       1       8       1       1       8       1       1
       8       1       1       8       1       1       8       1       1       8
       1       1       8       1       1       8       1       1       8       1
       1       8       1       1       8       1       1       8       1       1
       8       1       1       8       1       1       8       1       1       8
       1       1       8       1       1       8       1       1       8       1
       1       8       1       1       8       1       1       8       1       1
       8       1       1       8       1       1       8       1       1       8
       1       1       8       1       1       8       1       1       8       1
       1       8       1       1       8       1       1       8       1       1
       8       1       1       8       1       1       8       1       1       8
       1       1       8       1       1       8       1       1       8       1
       1       8       1       1       8       1       1       8       1       1
       8       1       1       8       1       1       8       1       1       8
       1       1       8       1       1       8       1       1       8       1
       1       8       1       1       8       1       1       8       1       1
       8       1       1       8       1       1       8       1       1       8
       1       1       8       1       1       8       1       1       8       1
       1       8       1       1       8       1       1       8       1       1
       8       1       1       8       1       1       8       1       1       8
       1       1       8       1       1       8       1       1       8       1
       1       8       1       1       8       1       1       8       1       1
       8       1       1       8       1       1       8       1       1       8
       1       1       8       1       1       8       1       1       8       1
       1       8       1       1       8       1       1       8       1       1
       8       1       1       8       1       1       8       1       1       8
       1       1       8       1       1       8       1       1       8       1
       1       8       1       1       8       1       1       8       1       1
       8       1       1       8       1       1       8       1       1       8
       1       1       8       1       1       8       1       1       8       1
       1       8       1       1       8       1       1       8       1       1
       8       1       1       8       1       1       8       1       1       8
       1       1       8       1       1       8       1       1       8       1
       1       8       1       1       8       1       1       8       1       1
       8       1       1       8       1       1       8       1       1       8
       1       1       8       1       1       8       1       1       8       1
       1       8       1       1       8       1       1       8       1       1
       8       1       1       8       1       1       8       1       1       8
       1       1       8       1       1       8       1       1       8       1
       1       8       1       1       8       1       1       8       1       1
       8       1       1       8       1       1       8       1       1       8
       1       1       8       1       1       8       1       1       8       1
       1       8       1       1       8       1       1       8       1       1
       8       1       1       8       1       1       8       1       1       8
       1       1       8       1       1       8       1       1       8       1
       1       8       1       1       8       1       1       8       1       1
       8       1       1       8       1       1       8       1       1       8
       1       1       8       1       1       8       1       1       8       1
       1       8       1       1       8       1       1       8       1       1
       8       1       1       8       1       1       8       1       1       8
       1       1       8       1       1       8       1       1       8       1
       1       8       1       1       8       1       1       8       1       1
       8       1       1       8       1       1       8       1       1       8
       1       1       8       1       1       8       1       1       8       1
       1       8       1       1       8       1       1       8       1       1
       8       1       1       8       1       1       8       1       1       8
       1       1       8       1       1       8       1       1       8       1
       1       8       1       1       8       1       1       8       1       1
       8       1       1       8       1       1       8       1       1       8
       1       1       8       1       1       8       1       1       8       1
       1       8       1       1       8       1       1       8       1       1
       8       1       1       8       1       1       8       1       1       8
       1       1       8       1       1       8       1       1       8       1
       1       8       1       1       8       1       1       8       1       1
       8       1       1       8       1       1       8       1       1       8
       1       1       8       1       1       8       1       1       8       1
       1       8       1       1       8       1       1       8       1       1
       8       1       1       8       1       1       8       1       1       8
       1       1       8       1       1       8       1       1       8       1
       1       8       1       1       8       1       1       8       1       1
       8       1       1       8       1       1       8       1       1       8
       1       1       8       1       1       8       1       1       8       1
       1       8       1       1       8       1       1       8       1       1
       8       1       1       8       1       1       8       1       1       8
       1       1       8       1       1       8       1       1       8       1
       1       8       1       1       8       1       1       8       1       1
       8       1       1       8       1       1       8       1       1       8
       1       1       8       1       1       8       1       1       8       1
       1       8       1       1       8       1       1       8       1       1
       8       1       1       8       1       1       8       1       1       8
       1       1       8       1       1       8       1       1       8       1
       1       8       1       1       8       1       1       8       1       1
       8       1       1       8       1       1       8       1       1       8
       1       1       8       1       1       8       1       1       8       1
       1       8       1       1       8       1       1       8       1       1
       8       1       1       8       1       1       8       1       1       8
       1       1       8       1       1       8       1       1       8       1
       1       8       1       1       8       1       1       8       1       1
       8       1       1       8       1       1       8       1       1       8
       1       1       8       1       1       8       1       1       8       1
       1       8       1       1       8       1       1       8       1       1
       8       1       1       8       1       1       8       1       1       8
       1       1       8       1       1       8       1       1       8       1
       1       8       1       1       8       1       1       8       1       1
       8       1       1       8       1       1       8       1       1       8
       1       1       8       1       1       8       1       1       8       1
       1       8       1       1       8       1       1       8       1       1
       8       1       1       8       1       1       8       1       1       8
       1       1       8       1       1       8       1       1       8       1
       1       8       1       1       8       1       1       8       1       1
       8       1       1       8       1       1       8       1       1       8
       1       1       8       1       1       8       1       1       8       1
       1       8       1       1       8       1       1       8       1       1
       8       1       1       8       1       1       8       1       1       8
       1       1       8       1       1       8       1       1       8       1
       1       8       1       1       8       1       1       8       1       1
       8       1       1       8       1       1       8       1       1       8
       1       1       8       1       1       8       1       1       8       1
       1       8       1       1       8       1       1       8       1       1
       8       1       1       8       1       1       8       1       1       8
       1       1       8       1       1       8       1       1       8       1
       1       8       1       1       8       1       1       8       1       1
       8       1       1       8       1       1       8       1       1       8
       1       1       8       1       1       8       1       1       8       1
       1       8       1       1       8       1       1       8       1       1
       8       1       1       8       1       1       8       1       1       8
       1       1       8       1       1       8       1       1       8       1
       1       8       1       1       8       1       1       8       1       1
       8       1       1       8       1       1       8       1       1       8
       1       1       8       1       1       8       1       1       8       1
       1       8       1       1       8       1       1       8       1       1
       8       1       1       8       1       1       8       1       1       8
       1       1       8       1       1       8       1       1       8       1
       1       8       1       1       8       1       1       8       1       1
       8       1       1       8       1       1       8       1       1       8
       1       1       8       1       1       8       1       1       8       1
       1       8       1       1       8       1       1       8       1       1
       8       1       1       8       1       1       8       1       1       8
       1       1       8       1       1       8       1       1       8       1
       1       8       1       1       8       1       1       8       1       1
       8       1       1       8       1       1       8       1       1       8
       1       1       8       1       1       8       1       1       8       1
       1       8       1       1       8       1       1       8       1       1
       8       1       1       8       1       1       8       1       1       8
       1       1       8       1       1       8       1       1       8       1
       1       8       1       1       8       1       1       8       1       1
       8       1       1       8       1       1       8       1       1       8
       1       1       8       1       1       8       1       1       8       1
       1       8       1       1       8       1       1       8       1       1
       8       1       1       8       1       1       8       1       1       8
       1       1       8       1       1       8       1       1       8       1
       1       8       1       1       8       1       1       8       1       1
       8       1       1       8       1       1       8       1       1       8
       1       1       8       1       1       8       1       1       8       1
       1       8       1       1       8       1       1       8       1       1
       8       1       1       8       1       1       8       1       1       8
       1       1       8       1       1       8       1       1       8       1
       1       8       1       1       8       1       1       8       1       1
       8       1       1       8       1       1       8       1       1       8
       1       1       8       1       1       8       1       1       8       1
       1       8       1       1       8       1       1       8       1       1
       8       1       1       8       1       1       8       1       1       8
       1       1       8       1       1       8       1       1       8       1
       1       8       1       1       8       1       1       8       1       1
       8       1       1       8       1       1       8       1       1       8
       1       1       8       1       1       8       1       1       8       1
       1       8       1       1       8       1       1       8       1       1
       8       1       1       8       1       1       8       1       1       8
       1       1       8       1       1       8       1       1       8       1
       1       8       1       1       8       1       1       8       1       1
       8       1       1       8       1       1       8       1       1       8
       1       1       8       1       1       8       1       1       8       1
       1       8       1       1       8       1       1       8       1       1
       8       1       1       8       1       1       8       1       1       8
       1       1       8       1       1       8       1       1       8       1
       1       8       1       1       8       1       1       8       1       1
       8       1       1       8       1       1       8       1       1       8
       1       1       8       1       1       8       1       1       8       1
       1       8       1       1       8       1       1       8       1       1
       8       1       1       8       1       1       8       1       1       8
       1       1       8       1       1       8       1       1       8       1
       1       8       1       1       8       1       1       8       1       1
       8       1       1       8       1       1       8       1       1       8
       1       1       8       1       1       8       1       1       8       1
       1       8       1       1       8       1       1       8       1       1
       8       1       1       8       1       1       8       1       1       8
       1       1       8       1       1       8       1       1       8       1
       1       8       1       1       8       1       1       8       1       1
       8       1       1       8       1       1       8       1       1       8
       1       1       8       1       1       8       1       1       8       1
       1       8       1       1       8       1       1       8       1       1
       8       1       1       8       1       1       8       1       1       8
       1       1       8       1       1       8       1       1       8       1
       1       8       1       1       8       1       1       8       1       1
       8       1       1       8       1       1       8       1       1       8
       1       1       8       1       1       8       1       1       8       1
       1       8       1       1       8       1       1       8       1       1
       8       1       1       8       1       1       8       1       1       8
       1       1       8       1       1       8       1       1       8       1
       1       8       1       1       8       1       1       8       1       1
       8       1       1       8       1       1       8       1       1       8
       1       1       8       1       1       8       1       1       8       1
       1       8       1       1       8       1       1       8       1       1
       8       1       1       8       1       1       8       1       1       8
       1       1       8       1       1       8       1       1       8       1
       1       8       1       1       8       1       1       8       1       1
       8       1       1       8       1       1       8       1       1       8
       1       1       8       1       1       8       1       1       8       1
       1       8       1       1       8       1       1       8       1       1
       8       1       1       8       1       1       8       1       1       8
       1       1       8       1       1       8       1       1       8       1
       1       8       1       1       8       1       1       8       1       1
       8       1       1       8       1       1       8       1       1       8
       1       1       8       1       1       8       1       1       8       1
       1       8       1       1       8       1       1       8       1       1
       8       1       1       8       1       1       8       1       1       8
       1       1       8       1       1       8       1       1       8       1
       1       8       1       1       8       1       1       8       1       1
       8       1       1       8       1       1       8       1       1       8
       1       1       8       1       1       8       1       1       8       1
       1       8       1       1       8       1       1       8       1       1
       8       1       1       8       1       1       8       1       1       8
       1       1       8       1       1       8       1       1       8       1
       1       8       1       1       8       1       1       8       1       1
       8       1       1       8       1       1       8       1       1       8
       1       1       8       1       1       8       1       1       8       1
       1       8       1       1       8       1       1       8       1       1
       8       1       1       8       1       1       8       1       1       8
       1       1       8       1       1       8       1       1       8       1
       1       8       1       1       8       1       1       8       1       1
       8       1       1       8       1       1       8       1       1       8
       1       1       8       1       1       8       1       1       8       1
       1       8       1       1       8       1       1       8       1       1
       8       1       1       8       1       1       8       1       1       8
       1       1       8       1       1       8       1       1       8       1
       1       8       1       1       8       1       1       8       1       1
       8       1       1       8       1       1       8       1       1       8
       1       1       8       1       1       8       1       1       8       1
       1       8       1       1       8       1       1       8       1       1
       8       1       1       8       1       1       8       1       1       8
       1       1       8       1       1       8       1       1       8       1
       1       8       1       1       8       1       1       8       1       1
       8       1       1       8       1       1       8       1       1       8
       1       1       8       1       1       8       1       1       8       1
       1       8       1       1       8       1       1       8       1       1
       8       1       1       8       1       1       8       1       1       8
       1       1       8       1       1       8       1       1       8       1
       1       8       1       1       8       1       1       8       1       1
       8       1       1       8       1       1       8       1       1       8
       1       1       8       1       1       8       1       1       8       1
       1       8       1       1       8       1       1       8       1       1
       8       1       1       8       1       1       8       1       1       8
       1       1       8       1       1       8       1       1       8       1
       1       8       1       1       8       1       1       8       1       1
       8       1       1       8       1       1       8       1       1       8
       1       1       8       1       1       8       1       1       8       1
       1       8       1       1       8       1       1       8       1       1
       8       1       1       8       1       1       8       1       1       8
       1       1       8       1       1       8       1       1       8       1
       1       8       1       1       8       1       1       8       1       1
       8       1       1       8       1       1       8       1       1       8
       1       1       8       1       1       8       1       1       8       1
       1       8       1       1       8       1       1       8       1       1
       8       1       1       8       1       1       8       1       1       8
       1       1       8       1       1       8       1       1       8       1
       1       8       1       1       8       1       1       8       1       1
       8       1       1       8       1       1       8       1       1       8
       1       1       8       1       1       8       1       1       8       1
       1       8       1       1       8       1       1       8       1       1
       8       1       1       8       1       1       8       1       1       8
       1       1       8       1       1       8       1       1       8       1
       1       8       1       1       8       1       1       8       1       1
       8       1       1       8       1       1       8       1       1       8
       1       1       8       1       1       8       1       1       8       1
       1       8       1       1       8       1       1       8       1       1
       8       1       1       8       1       1       8       1       1       8
       1       1       8       1       1       8       1       1       8       1
       1       8       1       1       8       1       1       8       1       1
       8       1       1       8       1       1       8       1       1       8
       1       1       8       1       1       8       1       1       8       1
       1       8       1       1       8       1       1       8       1       1
       8       1       1       8       1       1       8       1       1       8
       1       1       8       1       1       8       1       1       8       1
       1       8       1       1       8       1       1       8       1       1
       8       1       1       8       1       1       8       1       1       8
       1       1       8       1       1       8       1       1       8       1
       1       8       1       1       8       1       1       8       1       1
       8       1       1       8       1       1       8       1       1       8
       1       1       8       1       1       8       1       1       8       1
       1       8       1       1       8       1       1       8       1       1
       8       1       1       8       1       1       8       1       1       8
       1       1       8       1       1       8       1       1       8       1
       1       8       1       1       8       1       1       8       1       1
       8       1       1       8       1       1       8       1       1       8
       1       1       8       1       1       8       1       1       8       1
       1       8       1       1       8       1       1       8       1       1
       8       1       1       8       1       1       8       1       1       8
       1       1       8       1       1       8       1       1       8       1
       1       8       1       1       8       1       1       8       1       1
       8       1       1       8       1       1       8       1       1       8
       1       1       8       1       1       8       1       1       8       1
       1       8       1       1       8       1       1       8       1       1
       8       1       1       8       1       1       8       1       1       8
       1       1       8       1       1       8       1       1       8       1
       1       8       1       1       8       1       1       8       1       1
       8       1       1       8       1       1       8       1       1       8
       1       1       8       1       1       8       1       1       8       1
       1       8       1       1       8       1       1       8       1       1
       8       1       1       8       1       1       8       1       1       8
       1       1       8       1       1       8       1       1       8       1
       1       8       1       1       8       1       1       8       1       1
       8       1       1       8       1       1       8       1       1       8
       1       1       8       1       1       8       1       1       8       1
       1       8       1       1       8       1       1       8       1       1
       8       1       1       8       1       1       8       1       1       8
       1       1       8       1       1       8       1       1       8       1
       1       8       1       1       8       1       1       8       1       1
       8       1       1       8       1       1       8       1       1       8
       1       1       8       1       1       8       1       1       8       1
       1       8       1       1       8       1       1       8       1       1
       8       1       1       8       1       1       8       1       1       8
       1       1       8       1       1       8       1       1       8       1
       1       8       1       1       8       1       1       8       1       1
       8       1       1       8       1       1       8       1       1       8
       1       1       8       1       1       8       1       1       8       1
       1       8       1       1       8       1       1       8       1       1
       8       1       1       8       1       1       8       1       1       8
       1       1       8       1       1       8       1       1       8       1
       1       8       1       1       8       1       1       8       1       1
       8       1       1       8       1       1       8       1       1       8
       1       1       8       1       1       8       1       1       8       1
       1       8       1       1       8       1       1       8       1       1
       8       1       1       8       1       1       8       1       1       8
       1       1       8       1       1       8       1       1       8       1
       1       8       1       1       8       1       1       8       1       1
       8       1       1       8       1       1       8       1       1       8
       1       1       8       1       1       8       1       1       8       1
       1       8       1       1       8       1       1       8       1       1
       8       1       1       8       1       1       8       1       1       8
       1       1       8       1       1       8       1       1       8       1
       1       8       1       1       8       1       1       8       1       1
       8       1       1       8       1       1       8       1       1       8
       1       1       8       1       1       8       1       1       8       1
       1       8       1       1       8       1       1       8       1       1
       8       1       1       8       1       1       8       1       1       8
       1       1       8       1       1       8       1       1       8       1
       1       8       1       1       8       1       1       8       1       1
       8       1       1       8       1       1       8       1       1       8
       1       1       8       1       1       8       1       1       8       1
       1       8       1       1       8       1       1       8       1       1
       8       1       1       8       1       1       8       1       1       8
       1       1       8       1       1       8       1       1       8       1
       1       8       1       1       8       1       1       8       1       1
       8       1       1       8       1       1       8       1       1       8
       1       1       8       1       1       8       1       1       8       1
       1       8       1       1       8       1       1       8       1       1
       8       1       1       8       1       1       8       1       1       8
       1       1       8       1       1       8       1       1       8       1
       1       8       1       1       8       1       1       8       1       1
       8       1       1       8       1       1       8       1       1       8
       1       1       8       1       1       8       1       1       8       1
       1       8       1       1       8       1       1       8       1       1
       8       1       1       8       1       1       8       1       1       8
       1       1       8       1       1       8       1       1       8       1
       1       8       1       1       8       1       1       8       1       1
       8       1       1       8       1       1       8       1       1       8
       1       1       8       1       1       8       1       1       8       1
       1       8       1       1       8       1       1       8       1       1
       8       1       1       8       1       1       8       1       1       8
       1       1       8       1       1       8       1       1       8       1
       1       8       1       1       8       1       1       8       1       1
       8       1       1       8       1       1       8       1       1       8
       1       1       8       1       1       8       1       1       8       1
       1       8       1       1       8       1       1       8       1       1
       8       1       1       8       1       1       8       1       1       8
       1       1       8       1       1       8       1       1       8       1
       1       8       1       1       8       1       1       8       1       1
       8       1       1       8       1       1       8       1       1       8
       1       1       8       1       1       8       1       1       8       1
       1       8       1       1       8       1       1       8       1       1
       8       1       1       8       1       1       8       1       1       8
       1       1       8       1       1       8       1       1       8       1
       1       8       1       1       8       1       1       8       1       1
       8       1       1       8       1       1       8       1       1       8
       1       1       8       1       1       8       1       1       8       1
       1       8       1       1       8       1       1       8       1       1
       8       1       1       8       1       1       8       1       1       8
       1       1       8       1       1       8       1       1       8       1
       1       8       1       1       8       1       1       8       1       1
       8       1       1       8       1       1       8       1       1       8
       1       1       8       1       1       8       1       1       8       1
       1       8       1       1       8       1       1       8       1       1
       8       1       1       8       1       1       8       1       1       8
       1       1       8       1       1       8       1       1       8       1
       1       8       1       1       8       1       1       8       1       1
       8       1       1       8       1       1       8       1       1       8
       1       1       8       1       1       8       1       1       8       1
       1       8       1       1       8       1       1       8       1       1
       8       1       1       8       1       1       8       1       1       8
       1       1       8       1       1       8       1       1       8       1
       1       8       1       1       8       1       1       8       1       1
       8       1       1       8       1       1       8       1       1       8
       1       1       8       1       1       8       1       1       8       1
       1       8       1       1       8       1       1       8       1       1
       8       1       1       8       1       1       8       1       1       8
       1       1       8       1       1       8       1       1       8       1
       1       8       1       1       8       1       1       8       1       1
       8       1       1       8       1       1       8       1       1       8
       1       1       8       1       1       8       1       1       8       1
       1       8       1       1       8       1       1       8       1       1
       8       1       1       8       1       1       8       1       1       8
       1       1       8       1       1       8       1       1       8       1
       1       8       1       1       8       1       1       8       1       1
       8       1       1       8       1       1       8       1       1       8
       1       1       8       1       1       8       1       1       8       1
       1       8       1       1       8       1       1       8       1       1
       8       1       1       8       1       1       8       1       1       8
       1       1       8       1       1       8       1       1       8       1
       1       8       1       1       8       1       1       8       1       1
       8       1       1       8       1       1       8       1       1       8
       1       1       8       1       1       8       1       1       8       1
       1       8       1       1       8       1       1       8       1       1
       8       1       1       8       1       1       8       1       1       8
       1       1       8       1       1       8       1       1       8       1
       1       8       1       1       8       1       1       8       1       1
       8       1       1       8       1       1       8       1       1       8
       1       1       8       1       1       8       1       1       8       1
       1       8       1       1       8       1       1       8       1       1
       8       1       1       8       1       1       8       1       1       8
       1       1       8       1       1       8       1       1       8       1
       1       8       1       1       8       1       1       8       1       1
       8       1       1       8       1       1       8       1       1       8
       1       1       8       1       1       8       1       1       8       1
       1       8       1       1       8       1       1       8       1       1
       8       1       1       8       1       1       8       1       1       8
       1       1       8       1       1       8       1       1       8       1
       1       8       1       1       8       1       1       8       1       1
       8       1       1       8       1       1       8       1       1       8
       1       1       8       1       1       8       1       1       8       1
       1       8       1       1       8       1       1       8       1       1
       8       1       1       8       1       1       8       1       1       8
       1       1       8       1       1       8       1       1       8       1
       1       8       1       1       8       1       1       8       1       1
       8       1       1       8       1       1       8       1       1       8
       1       1       8       1       1       8       1       1       8       1
       1       8       1       1       8       1       1       8       1       1
       8       1       1       8       1       1       8       1       1       8
       1       1       8       1       1       8       1       1       8       1
       1       8       1       1       8       1       1       8       1       1
       8       1       1       8       1       1       8       1       1       8
       1       1       8       1       1       8       1       1       8       1
       1       8       1       1       8       1       1       8       1       1
       8       1       1       8       1       1       8       1       1       8
       1       1       8       1       1       8       1       1       8       1
       1       8       1       1       8       1       1       8       1       1
       8       1       1       8       1       1       8       1       1       8
       1       1       8       1       1       8       1       1       8       1
       1       8       1       1       8       1       1       8       1       1
       8       1       1       8       1       1       8       1       1       8
       1       1       8       1       1       8       1       1       8       1
       1       8       1       1       8       1       1       8       1       1
       8       1       1       8       1       1       8       1       1       8
       1       1       8       1       1       8       1       1       8       1
       1       8       1       1       8       1       1       8       1       1
       8       1       1       8       1       1       8       1       1       8
       1       1       8       1       1       8       1       1       8       1
       1       8       1       1       8       1       1       8       1       1
       8       1       1       8       1       1       8       1       1       8
       1       1       8       1       1       8       1       1       8       1
       1       8       1       1       8       1       1       8       1       1
       8       1       1       8       1       1       8       1       1       8
       1       1       8       1       1       8       1       1       8       1
       1       8       1       1       8       1       1       8       1       1
       8       1       1       8       1       1       8       1       1       8
       1       1       8       1       1       8       1       1       8       1
       1       8       1       1       8       1       1       8       1       1
       8       1       1       8       1       1       8       1       1       8
       1       1       8       1       1       8       1       1       8       1
       1       8       1       1       8       1       1       8       1       1
       8       1       1       8       1       1       8       1       1       8
       1       1       8       1       1       8       1       1       8       1
       1       8       1       1       8       1       1       8       1       1
       8       1       1       8       1       1       8       1       1       8
       1       1       8       1       1       8       1       1       8       1
       1       8       1       1       8       1       1       8       1       1
       8       1       1       8       1       1       8       1       1       8
       1       1       8       1       1       8       1       1       8       1
       1       8       1       1       8       1       1       8       1       1
       8       1       1       8       1       1       8       1       1       8
       1       1       8       1       1       8       1       1       8       1
       1       8       1       1       8       1       1       8       1       1
       8       1       1       8       1       1       8       1       1       8
       1       1       8       1       1       8       1       1       8       1
       1       8       1       1       8       1       1       8       1       1
       8       1       1       8       1       1       8       1       1       8
       1       1       8       1       1       8       1       1       8       1
       1       8       1       1       8       1       1       8       1       1
       8       1       1       8       1       1       8       1       1       8
       1       1       8       1       1       8       1       1       8       1
       1       8       1       1       8       1       1       8       1       1
       8       1       1       8       1       1       8       1       1       8
       1       1       8       1       1       8       1       1       8       1
       1       8       1       1       8       1       1       8       1       1
       8       1       1       8       1       1       8       1       1       8
       1       1       8       1       1       8       1       1       8       1
       1       8       1       1       8       1       1       8       1       1
       8       1       1       8       1       1       8       1       1       8
       1       1       8       1       1       8       1       1       8       1
       1       8       1       1       8       1       1       8       1       1
       8       1       1       8       1       1       8       1       1       8
       1       1       8       1       1       8       1       1       8       1
       1       8       1       1       8       1       1       8       1       1
       8       1       1       8       1       1       8       1       1       8
       1       1       8       1       1       8       1       1       8       1
       1       8       1       1       8       1       1       8       1       1
       8       1       1       8       1       1       8       1       1       8
       1       1       8       1       1       8       1       1       8       1
       1       8       1       1       8       1       1       8       1       1
       8       1       1       8       1       1       8       1       1       8
       1       1       8       1       1       8       1       1       8       1
       1       8       1       1       8       1       1       8       1       1
       8       1       1       8       1       1       8       1       1       8
       1       1       8       1       1       8       1       1       8       1
       1       8       1       1       8       1       1       8       1       1
       8       1       1       8       1       1       8       1       1       8
       1       1       8       1       1       8       1       1       8       1
       1       8       1       1       8       1       1       8       1       1
       8       1       1       8       1       1       8       1       1       8
       1       1       8       1       1       8       1       1       8       1
       1       8       1       1       8       1       1       8       1       1
       8       1       1       8       1       1       8       1       1       8
       1       1       8       1       1       8       1       1
%FLAG MASS                                                                      
%FORMAT(5E16.8)                                                                 
  1.40100000E+01  1.00800000E+00  1.00800000E+00  1.00800000E+00  1.20100000E+01
  1.00800000E+00  1.00800000E+00  1.20100000E+01  1.60000000E+01  1.40100000E+01
  1.00800000E+00  1.20100000E+01  1.00800000E+00  1.20100000E+01  1.00800000E+00
  1.00800000E+00  1.20100000E+01  1.20100000E+01  1.00800000E+00  1.20100000E+01
  1.00800000E+00  1.20100000E+01  1.60000000E+01  1.00800000E+00  1.20100000E+01
  1.00800000E+00  1.20100000E+01  1.00800000E+00  1.20100000E+01  1.60000000E+01
  1.40100000E+01  1.00800000E+00  1.20100000E+01  1.00800000E+00  1.20100000E+01
  1.00800000E+00  1.00800000E+00  1.20100000E+01  1.60000000E+01  1.60000000E+01
  1.20100000E+01  1.60000000E+01  1.40100000E+01  1.20100000E+01  1.00800000E+00
  1.00800000E+00  1.20100000E+01  1.00800000E+00  1.00800000E+00  1.20100000E+01
  1.00800000E+00  1.00800000E+00  1.20100000E+01  1.00800000E+00  1.20100000E+01
  1.60000000E+01  1.40100000E+01  1.00800000E+00  1.20100000E+01  1.00800000E+00
  1.20100000E+01  1.00800000E+00  1.00800000E+00  1.20100000E+01  1.00800000E+00
  1.00800000E+00  1.20100000E+01  1.60000000E+01  1.60000000E+01  1.20100000E+01
  1.60000000E+01  1.40100000E+01  1.00800000E+00  1.20100000E+01  1.00800000E+00
  1.20100000E+01  1.00800000E+00  1.20100000E+01  1.00800000E+00  1.00800000E+00
  1.00800000E+00  1.60000000E+01  1.00800000E+00  1.20100000E+01  1.60000000E+01
  1.40100000E+01  1.00800000E+00  1.20100000E+01  1.00800000E+00  1.00800000E+00
  1.20100000E+01  1.60000000E+01  1.40100000E+01  1.00800000E+00  1.20100000E+01
  1.00800000E+00  1.20100000E+01  1.00800000E+00  1.20100000E+01  1.00800000E+00
  1.00800000E+00  1.00800000E+00  1.60000000E+01  1.00800000E+00  1.20100000E+01
  1.60000000E+01  1.40100000E+01  1.00800000E+00  1.20100000E+01  1.00800000E+00
  1.20100000E+01  1.00800000E+00  1.00800000E+00  1.20100000E+01  1.20100000E+01
  1.00800000E+00  1.40100000E+01  1.00800000E+00  1.20100000E+01  1.20100000E+01
  1.00800000E+00  1.20100000E+01  1.00800000E+00  1.20100000E+01  1.00800000E+00
  1.20100000E+01  1.00800000E+00  1.20100000E+01  1.20100000E+01  1.60000000E+01
  1.40100000E+01  1.00800000E+00  1.20100000E+01  1.00800000E+00  1.00800000E+00
  1.20100000E+01  1.60000000E+01  1.60000000E+01  2.29900000E+01  2.29900000E+01
  1.60000000E+01  1.00800000E+00  1.00800000E+00  1.60000000E+01  1.00800000E+00
  1.00800000E+00  1.60000000E+01  1.00800000E+00  1.00800000E+00  1.60000000E+01
  1.00800000E+00  1.00800000E+00  1.60000000E+01  1.00800000E+00  1.00800000E+00
  1.60000000E+01  1.00800000E+00  1.00800000E+00  1.60000000E+01  1.00800000E+00
  1.00800000E+00  1.60000000E+01  1.00800000E+00  1.00800000E+00  1.60000000E+01
  1.00800000E+00  1.00800000E+00  1.60000000E+01  1.00800000E+00  1.00800000E+00
  1.60000000E+01  1.00800000E+00  1.00800000E+00  1.60000000E+01  1.00800000E+00
  1.00800000E+00  1.60000000E+01  1.00800000E+00  1.00800000E+00  1.60000000E+01
  1.00800000E+00  1.00800000E+00  1.60000000E+01  1.00800000E+00  1.00800000E+00
  1.60000000E+01  1.00800000E+00  1.00800000E+00  1.60000000E+01  1.00800000E+00
  1.00800000E+00  1.60000000E+01  1.00800000E+00  1.00800000E+00  1.60000000E+01
  1.00800000E+00  1.00800000E+00  1.60000000E+01  1.00800000E+00  1.00800000E+00
  1.60000000E+01  1.00800000E+00  1.00800000E+00  1.60000000E+01  1.00800000E+00
  1.00800000E+00  1.60000000E+01  1.00800000E+00  1.00800000E+00  1.60000000E+01
  1.00800000E+00  1.00800000E+00  1.60000000E+01  1.00800000E+00  1.00800000E+00
  1.60000000E+01  1.00800000E+00  1.00800000E+00  1.60000000E+01  1.00800000E+00
  1.00800000E+00  1.60000000E+01  1.00800000E+00  1.00800000E+00  1.60000000E+01
  1.00800000E+00  1.00800000E+00  1.60000000E+01  1.00800000E+00  1.00800000E+00
  1.60000000E+01  1.00800000E+00  1.00800000E+00  1.60000000E+01  1.00800000E+00
  1.00800000E+00  1.60000000E+01  1.00800000E+00  1.00800000E+00  1.60000000E+01
  1.00800000E+00  1.00800000E+00  1.60000000E+01  1.00800000E+00  1.00800000E+00
  1.60000000E+01  1.00800000E+00  1.00800000E+00  1.60000000E+01  1.00800000E+00
  1.00800000E+00  1.60000000E+01  1.00800000E+00  1.00800000E+00  1.60000000E+01
  1.00800000E+00  1.00800000E+00  1.60000000E+01  1.00800000E+00  1.00800000E+00
  1.60000000E+01  1.00800000E+00  1.00800000E+00  1.60000000E+01  1.00800000E+00
  1.00800000E+00  1.60000000E+01  1.00800000E+00  1.00800000E+00  1.60000000E+01
  1.00800000E+00  1.00800000E+00  1.60000000E+01  1.00800000E+00  1.00800000E+00
  1.60000000E+01  1.00800000E+00  1.00800000E+00  1.60000000E+01  1.00800000E+00
  1.00800000E+00  1.60000000E+01  1.00800000E+00  1.00800000E+00  1.60000000E+01
  1.00800000E+00  1.00800000E+00  1.60000000E+01  1.00800000E+00  1.00800000E+00
  1.60000000E+01  1.00800000E+00  1.00800000E+00  1.60000000E+01  1.00800000E+00
  1.00800000E+00  1.60000000E+01  1.00800000E+00  1.00800000E+00  1.60000000E+01
  1.00800000E+00  1.00800000E+00  1.60000000E+01  1.00800000E+00  1.00800000E+00
  1.60000000E+01  1.00800000E+00  1.00800000E+00  1.60000000E+01  1.00800000E+00
  1.00800000E+00  1.60000000E+01  1.00800000E+00  1.00800000E+00  1.60000000E+01
  1.00800000E+00  1.00800000E+00  1.60000000E+01  1.00800000E+00  1.00800000E+00
  1.60000000E+01  1.00800000E+00  1.00800000E+00  1.60000000E+01  1.00800000E+00
  1.00800000E+00  1.60000000E+01  1.00800000E+00  1.00800000E+00  1.60000000E+01
  1.00800000E+00  1.00800000E+00  1.60000000E+01  1.00800000E+00  1.00800000E+00
  1.60000000E+01  1.00800000E+00  1.00800000E+00  1.60000000E+01  1.00800000E+00
  1.00800000E+00  1.60000000E+01  1.00800000E+00  1.00800000E+00  1.60000000E+01
  1.00800000E+00  1.00800000E+00  1.60000000E+01  1.00800000E+00  1.00800000E+00
  1.60000000E+01  1.00800000E+00  1.00800000E+00  1.60000000E+01  1.00800000E+00
  1.00800000E+00  1.60000000E+01  1.00800000E+00  1.00800000E+00  1.60000000E+01
  1.00800000E+00  1.00800000E+00  1.60000000E+01  1.00800000E+00  1.00800000E+00
  1.60000000E+01  1.00800000E+00  1.00800000E+00  1.60000000E+01  1.00800000E+00
  1.00800000E+00  1.60000000E+01  1.00800000E+00  1.00800000E+00  1.60000000E+01
  1.00800000E+00  1.00800000E+00  1.60000000E+01  1.00800000E+00  1.00800000E+00
  1.60000000E+01  1.00800000E+00  1.00800000E+00  1.60000000E+01  1.00800000E+00
  1.00800000E+00  1.60000000E+01  1.00800000E+00  1.00800000E+00  1.60000000E+01
  1.00800000E+00  1.00800000E+00  1.60000000E+01  1.00800000E+00  1.00800000E+00
  1.60000000E+01  1.00800000E+00  1.00800000E+00  1.60000000E+01  1.00800000E+00
  1.00800000E+00  1.60000000E+01  1.00800000E+00  1.00800000E+00  1.60000000E+01
  1.00800000E+00  1.00800000E+00  1.60000000E+01  1.00800000E+00  1.00800000E+00
  1.60000000E+01  1.00800000E+00  1.00800000E+00  1.60000000E+01  1.00800000E+00
  1.00800000E+00  1.60000000E+01  1.00800000E+00  1.00800000E+00  1.60000000E+01
  1.00800000E+00  1.00800000E+00  1.60000000E+01  1.00800000E+00  1.00800000E+00
  1.60000000E+01  1.00800000E+00  1.00800000E+00  1.60000000E+01  1.00800000E+00
  1.00800000E+00  1.60000000E+01  1.00800000E+00  1.00800000E+00  1.60000000E+01
  1.00800000E+00  1.00800000E+00  1.60000000E+01  1.00800000E+00  1.00800000E+00
  1.60000000E+01  1.00800000E+00  1.00800000E+00  1.60000000E+01  1.00800000E+00
  1.00800000E+00  1.60000000E+01  1.00800000E+00  1.00800000E+00  1.60000000E+01
  1.00800000E+00  1.00800000E+00  1.60000000E+01  1.00800000E+00  1.00800000E+00
  1.60000000E+01  1.00800000E+00  1.00800000E+00  1.60000000E+01  1.00800000E+00
  1.00800000E+00  1.60000000E+01  1.00800000E+00  1.00800000E+00  1.60000000E+01
  1.00800000E+00  1.00800000E+00  1.60000000E+01  1.00800000E+00  1.00800000E+00
  1.60000000E+01  1.00800000E+00  1.00800000E+00  1.60000000E+01  1.00800000E+00
  1.00800000E+00  1.60000000E+01  1.00800000E+00  1.00800000E+00  1.60000000E+01
  1.00800000E+00  1.00800000E+00  1.60000000E+01  1.00800000E+00  1.00800000E+00
  1.60000000E+01  1.00800000E+00  1.00800000E+00  1.60000000E+01  1.00800000E+00
  1.00800000E+00  1.60000000E+01  1.00800000E+00  1.00800000E+00  1.60000000E+01
  1.00800000E+00  1.00800000E+00  1.60000000E+01  1.00800000E+00  1.00800000E+00
  1.60000000E+01  1.00800000E+00  1.00800000E+00  1.60000000E+01  1.00800000E+00
  1.00800000E+00  1.60000000E+01  1.00800000E+00  1.00800000E+00  1.60000000E+01
  1.00800000E+00  1.00800000E+00  1.60000000E+01  1.00800000E+00  1.00800000E+00
  1.60000000E+01  1.00800000E+00  1.00800000E+00  1.60000000E+01  1.00800000E+00
  1.00800000E+00  1.60000000E+01  1.00800000E+00  1.00800000E+00  1.60000000E+01
  1.00800000E+00  1.00800000E+00  1.60000000E+01  1.00800000E+00  1.00800000E+00
  1.60000000E+01  1.00800000E+00  1.00800000E+00  1.60000000E+01  1.00800000E+00
  1.00800000E+00  1.60000000E+01  1.00800000E+00  1.00800000E+00  1.60000000E+01
  1.00800000E+00  1.00800000E+00  1.60000000E+01  1.00800000E+00  1.00800000E+00
  1.60000000E+01  1.00800000E+00  1.00800000E+00  1.60000000E+01  1.00800000E+00
  1.00800000E+00  1.60000000E+01  1.00800000E+00  1.00800000E+00  1.60000000E+01
  1.00800000E+00  1.00800000E+00  1.60000000E+01  1.00800000E+00  1.00800000E+00
  1.60000000E+01  1.00800000E+00  1.00800000E+00  1.60000000E+01  1.00800000E+00
  1.00800000E+00  1.60000000E+01  1.00800000E+00  1.00800000E+00  1.60000000E+01
  1.00800000E+00  1.00800000E+00  1.60000000E+01  1.00800000E+00  1.00800000E+00
  1.60000000E+01  1.00800000E+00  1.00800000E+00  1.60000000E+01  1.00800000E+00
  1.00800000E+00  1.60000000E+01  1.00800000E+00  1.00800000E+00  1.60000000E+01
  1.00800000E+00  1.00800000E+00  1.60000000E+01  1.00800000E+00  1.00800000E+00
  1.60000000E+01  1.00800000E+00  1.00800000E+00  1.60000000E+01  1.00800000E+00
  1.00800000E+00  1.60000000E+01  1.00800000E+00  1.00800000E+00  1.60000000E+01
  1.00800000E+00  1.00800000E+00  1.60000000E+01  1.00800000E+00  1.00800000E+00
  1.60000000E+01  1.00800000E+00  1.00800000E+00  1.60000000E+01  1.00800000E+00
  1.00800000E+00  1.60000000E+01  1.00800000E+00  1.00800000E+00  1.60000000E+01
  1.00800000E+00  1.00800000E+00  1.60000000E+01  1.00800000E+00  1.00800000E+00
  1.60000000E+01  1.00800000E+00  1.00800000E+00  1.60000000E+01  1.00800000E+00
  1.00800000E+00  1.60000000E+01  1.00800000E+00  1.00800000E+00  1.60000000E+01
  1.00800000E+00  1.00800000E+00  1.60000000E+01  1.00800000E+00  1.00800000E+00
  1.60000000E+01  1.00800000E+00  1.00800000E+00  1.60000000E+01  1.00800000E+00
  1.00800000E+00  1.60000000E+01  1.00800000E+00  1.00800000E+00  1.60000000E+01
  1.00800000E+00  1.00800000E+00  1.60000000E+01  1.00800000E+00  1.00800000E+00
  1.60000000E+01  1.00800000E+00  1.00800000E+00  1.60000000E+01  1.00800000E+00
  1.00800000E+00  1.60000000E+01  1.00800000E+00  1.00800000E+00  1.60000000E+01
  1.00800000E+00  1.00800000E+00  1.60000000E+01  1.00800000E+00  1.00800000E+00
  1.60000000E+01  1.00800000E+00  1.00800000E+00  1.60000000E+01  1.00800000E+00
  1.00800000E+00  1.60000000E+01  1.00800000E+00  1.00800000E+00  1.60000000E+01
  1.00800000E+00  1.00800000E+00  1.60000000E+01  1.00800000E+00  1.00800000E+00
  1.60000000E+01  1.00800000E+00  1.00800000E+00  1.60000000E+01  1.00800000E+00
  1.00800000E+00  1.60000000E+01  1.00800000E+00  1.00800000E+00  1.60000000E+01
  1.00800000E+00  1.00800000E+00  1.60000000E+01  1.00800000E+00  1.00800000E+00
  1.60000000E+01  1.00800000E+00  1.00800000E+00  1.60000000E+01  1.00800000E+00
  1.00800000E+00  1.60000000E+01  1.00800000E+00  1.00800000E+00  1.60000000E+01
  1.00800000E+00  1.00800000E+00  1.60000000E+01  1.00800000E+00  1.00800000E+00
  1.60000000E+01  1.00800000E+00  1.00800000E+00  1.60000000E+01  1.00800000E+00
  1.00800000E+00  1.60000000E+01  1.00800000E+00  1.00800000E+00  1.60000000E+01
  1.00800000E+00  1.00800000E+00  1.60000000E+01  1.00800000E+00  1.00800000E+00
  1.60000000E+01  1.00800000E+00  1.00800000E+00  1.60000000E+01  1.00800000E+00
  1.00800000E+00  1.60000000E+01  1.00800000E+00  1.00800000E+00  1.60000000E+01
  1.00800000E+00  1.00800000E+00  1.60000000E+01  1.00800000E+00  1.00800000E+00
  1.60000000E+01  1.00800000E+00  1.00800000E+00  1.60000000E+01  1.00800000E+00
  1.00800000E+00  1.60000000E+01  1.00800000E+00  1.00800000E+00  1.60000000E+01
  1.00800000E+00  1.00800000E+00  1.60000000E+01  1.00800000E+00  1.00800000E+00
  1.60000000E+01  1.00800000E+00  1.00800000E+00  1.60000000E+01  1.00800000E+00
  1.00800000E+00  1.60000000E+01  1.00800000E+00  1.00800000E+00  1.60000000E+01
  1.00800000E+00  1.00800000E+00  1.60000000E+01  1.00800000E+00  1.00800000E+00
  1.60000000E+01  1.00800000E+00  1.00800000E+00  1.60000000E+01  1.00800000E+00
  1.00800000E+00  1.60000000E+01  1.00800000E+00  1.00800000E+00  1.60000000E+01
  1.00800000E+00  1.00800000E+00  1.60000000E+01  1.00800000E+00  1.00800000E+00
  1.60000000E+01  1.00800000E+00  1.00800000E+00  1.60000000E+01  1.00800000E+00
  1.00800000E+00  1.60000000E+01  1.00800000E+00  1.00800000E+00  1.60000000E+01
  1.00800000E+00  1.00800000E+00  1.60000000E+01  1.00800000E+00  1.00800000E+00
  1.60000000E+01  1.00800000E+00  1.00800000E+00  1.60000000E+01  1.00800000E+00
  1.00800000E+00  1.60000000E+01  1.00800000E+00  1.00800000E+00  1.60000000E+01
  1.00800000E+00  1.00800000E+00  1.60000000E+01  1.00800000E+00  1.00800000E+00
  1.60000000E+01  1.00800000E+00  1.00800000E+00  1.60000000E+01  1.00800000E+00
  1.00800000E+00  1.60000000E+01  1.00800000E+00  1.00800000E+00  1.60000000E+01
  1.00800000E+00  1.00800000E+00  1.60000000E+01  1.00800000E+00  1.00800000E+00
  1.60000000E+01  1.00800000E+00  1.00800000E+00  1.60000000E+01  1.00800000E+00
  1.00800000E+00  1.60000000E+01  1.00800000E+00  1.00800000E+00  1.60000000E+01
  1.00800000E+00  1.00800000E+00  1.60000000E+01  1.00800000E+00  1.00800000E+00
  1.60000000E+01  1.00800000E+00  1.00800000E+00  1.60000000E+01  1.00800000E+00
  1.00800000E+00  1.60000000E+01  1.00800000E+00  1.00800000E+00  1.60000000E+01
  1.00800000E+00  1.00800000E+00  1.60000000E+01  1.00800000E+00  1.00800000E+00
  1.60000000E+01  1.00800000E+00  1.00800000E+00  1.60000000E+01  1.00800000E+00
  1.00800000E+00  1.60000000E+01  1.00800000E+00  1.00800000E+00  1.60000000E+01
  1.00800000E+00  1.00800000E+00  1.60000000E+01  1.00800000E+00  1.00800000E+00
  1.60000000E+01  1.00800000E+00  1.00800000E+00  1.60000000E+01  1.00800000E+00
  1.00800000E+00  1.60000000E+01  1.00800000E+00  1.00800000E+00  1.60000000E+01
  1.00800000E+00  1.00800000E+00  1.60000000E+01  1.00800000E+00  1.00800000E+00
  1.60000000E+01  1.00800000E+00  1.00800000E+00  1.60000000E+01  1.00800000E+00
  1.00800000E+00  1.60000000E+01  1.00800000E+00  1.00800000E+00  1.60000000E+01
  1.00800000E+00  1.00800000E+00  1.60000000E+01  1.00800000E+00  1.00800000E+00
  1.60000000E+01  1.00800000E+00  1.00800000E+00  1.60000000E+01  1.00800000E+00
  1.00800000E+00  1.60000000E+01  1.00800000E+00  1.00800000E+00  1.60000000E+01
  1.00800000E+00  1.00800000E+00  1.60000000E+01  1.00800000E+00  1.00800000E+00
  1.60000000E+01  1.00800000E+00  1.00800000E+00  1.60000000E+01  1.00800000E+00
  1.00800000E+00  1.60000000E+01  1.00800000E+00  1.00800000E+00  1.60000000E+01
  1.00800000E+00  1.00800000E+00  1.60000000E+01  1.00800000E+00  1.00800000E+00
  1.60000000E+01  1.00800000E+00  1.00800000E+00  1.60000000E+01  1.00800000E+00
  1.00800000E+00  1.60000000E+01  1.00800000E+00  1.00800000E+00  1.60000000E+01
  1.00800000E+00  1.00800000E+00  1.60000000E+01  1.00800000E+00  1.00800000E+00
  1.60000000E+01  1.00800000E+00  1.00800000E+00  1.60000000E+01  1.00800000E+00
  1.00800000E+00  1.60000000E+01  1.00800000E+00  1.00800000E+00  1.60000000E+01
  1.00800000E+00  1.00800000E+00  1.60000000E+01  1.00800000E+00  1.00800000E+00
  1.60000000E+01  1.00800000E+00  1.00800000E+00  1.60000000E+01  1.00800000E+00
  1.00800000E+00  1.60000000E+01  1.00800000E+00  1.00800000E+00  1.60000000E+01
  1.00800000E+00  1.00800000E+00  1.60000000E+01  1.00800000E+00  1.00800000E+00
  1.60000000E+01  1.00800000E+00  1.00800000E+00  1.60000000E+01  1.00800000E+00
  1.00800000E+00  1.60000000E+01  1.00800000E+00  1.00800000E+00  1.60000000E+01
  1.00800000E+00  1.00800000E+00  1.60000000E+01  1.00800000E+00  1.00800000E+00
  1.60000000E+01  1.00800000E+00  1.00800000E+00  1.60000000E+01  1.00800000E+00
  1.00800000E+00  1.60000000E+01  1.00800000E+00  1.00800000E+00  1.60000000E+01
  1.00800000E+00  1.00800000E+00  1.60000000E+01  1.00800000E+00  1.00800000E+00
  1.60000000E+01  1.00800000E+00  1.00800000E+00  1.60000000E+01  1.00800000E+00
  1.00800000E+00  1.60000000E+01  1.00800000E+00  1.00800000E+00  1.60000000E+01
  1.00800000E+00  1.00800000E+00  1.60000000E+01  1.00800000E+00  1.00800000E+00
  1.60000000E+01  1.00800000E+00  1.00800000E+00  1.60000000E+01  1.00800000E+00
  1.00800000E+00  1.60000000E+01  1.00800000E+00  1.00800000E+00  1.60000000E+01
  1.00800000E+00  1.00800000E+00  1.60000000E+01  1.00800000E+00  1.00800000E+00
  1.60000000E+01  1.00800000E+00  1.00800000E+00  1.60000000E+01  1.00800000E+00
  1.00800000E+00  1.60000000E+01  1.00800000E+00  1.00800000E+00  1.60000000E+01
  1.00800000E+00  1.00800000E+00  1.60000000E+01  1.00800000E+00  1.00800000E+00
  1.60000000E+01  1.00800000E+00  1.00800000E+00  1.60000000E+01  1.00800000E+00
  1.00800000E+00  1.60000000E+01  1.00800000E+00  1.00800000E+00  1.60000000E+01
  1.00800000E+00  1.00800000E+00  1.60000000E+01  1.00800000E+00  1.00800000E+00
  1.60000000E+01  1.00800000E+00  1.00800000E+00  1.60000000E+01  1.00800000E+00
  1.00800000E+00  1.60000000E+01  1.00800000E+00  1.00800000E+00  1.60000000E+01
  1.00800000E+00  1.00800000E+00  1.60000000E+01  1.00800000E+00  1.00800000E+00
  1.60000000E+01  1.00800000E+00  1.00800000E+00  1.60000000E+01  1.00800000E+00
  1.00800000E+00  1.60000000E+01  1.00800000E+00  1.00800000E+00  1.60000000E+01
  1.00800000E+00  1.00800000E+00  1.60000000E+01  1.00800000E+00  1.00800000E+00
  1.60000000E+01  1.00800000E+00  1.00800000E+00  1.60000000E+01  1.00800000E+00
  1.00800000E+00  1.60000000E+01  1.00800000E+00  1.00800000E+00  1.60000000E+01
  1.00800000E+00  1.00800000E+00  1.60000000E+01  1.00800000E+00  1.00800000E+00
  1.60000000E+01  1.00800000E+00  1.00800000E+00  1.60000000E+01  1.00800000E+00
  1.00800000E+00  1.60000000E+01  1.00800000E+00  1.00800000E+00  1.60000000E+01
  1.00800000E+00  1.00800000E+00  1.60000000E+01  1.00800000E+00  1.00800000E+00
  1.60000000E+01  1.00800000E+00  1.00800000E+00  1.60000000E+01  1.00800000E+00
  1.00800000E+00  1.60000000E+01  1.00800000E+00  1.00800000E+00  1.60000000E+01
  1.00800000E+00  1.00800000E+00  1.60000000E+01  1.00800000E+00  1.00800000E+00
  1.60000000E+01  1.00800000E+00  1.00800000E+00  1.60000000E+01  1.00800000E+00
  1.00800000E+00  1.60000000E+01  1.00800000E+00  1.00800000E+00  1.60000000E+01
  1.00800000E+00  1.00800000E+00  1.60000000E+01  1.00800000E+00  1.00800000E+00
  1.60000000E+01  1.00800000E+00  1.00800000E+00  1.60000000E+01  1.00800000E+00
  1.00800000E+00  1.60000000E+01  1.00800000E+00  1.00800000E+00  1.60000000E+01
  1.00800000E+00  1.00800000E+00  1.60000000E+01  1.00800000E+00  1.00800000E+00
  1.60000000E+01  1.00800000E+00  1.00800000E+00  1.60000000E+01  1.00800000E+00
  1.00800000E+00  1.60000000E+01  1.00800000E+00  1.00800000E+00  1.60000000E+01
  1.00800000E+00  1.00800000E+00  1.60000000E+01  1.00800000E+00  1.00800000E+00
  1.60000000E+01  1.00800000E+00  1.00800000E+00  1.60000000E+01  1.00800000E+00
  1.00800000E+00  1.60000000E+01  1.00800000E+00  1.00800000E+00  1.60000000E+01
  1.00800000E+00  1.00800000E+00  1.60000000E+01  1.00800000E+00  1.00800000E+00
  1.60000000E+01  1.00800000E+00  1.00800000E+00  1.60000000E+01  1.00800000E+00
  1.00800000E+00  1.60000000E+01  1.00800000E+00  1.00800000E+00  1.60000000E+01
  1.00800000E+00  1.00800000E+00  1.60000000E+01  1.00800000E+00  1.00800000E+00
  1.60000000E+01  1.00800000E+00  1.00800000E+00  1.60000000E+01  1.00800000E+00
  1.00800000E+00  1.60000000E+01  1.00800000E+00  1.00800000E+00  1.60000000E+01
  1.00800000E+00  1.00800000E+00  1.60000000E+01  1.00800000E+00  1.00800000E+00
  1.60000000E+01  1.00800000E+00  1.00800000E+00  1.60000000E+01  1.00800000E+00
  1.00800000E+00  1.60000000E+01  1.00800000E+00  1.00800000E+00  1.60000000E+01
  1.00800000E+00  1.00800000E+00  1.60000000E+01  1.00800000E+00  1.00800000E+00
  1.60000000E+01  1.00800000E+00  1.00800000E+00  1.60000000E+01  1.00800000E+00
  1.00800000E+00  1.60000000E+01  1.00800000E+00  1.00800000E+00  1.60000000E+01
  1.00800000E+00  1.00800000E+00  1.60000000E+01  1.00800000E+00  1.00800000E+00
  1.60000000E+01  1.00800000E+00  1.00800000E+00  1.60000000E+01  1.00800000E+00
  1.00800000E+00  1.60000000E+01  1.00800000E+00  1.00800000E+00  1.60000000E+01
  1.00800000E+00  1.00800000E+00  1.60000000E+01  1.00800000E+00  1.00800000E+00
  1.60000000E+01  1.00800000E+00  1.00800000E+00  1.60000000E+01  1.00800000E+00
  1.00800000E+00  1.60000000E+01  1.00800000E+00  1.00800000E+00  1.60000000E+01
  1.00800000E+00  1.00800000E+00  1.60000000E+01  1.00800000E+00  1.00800000E+00
  1.60000000E+01  1.00800000E+00  1.00800000E+00  1.60000000E+01  1.00800000E+00
  1.00800000E+00  1.60000000E+01  1.00800000E+00  1.00800000E+00  1.60000000E+01
  1.00800000E+00  1.00800000E+00  1.60000000E+01  1.00800000E+00  1.00800000E+00
  1.60000000E+01  1.00800000E+00  1.00800000E+00  1.60000000E+01  1.00800000E+00
  1.00800000E+00  1.60000000E+01  1.00800000E+00  1.00800000E+00  1.60000000E+01
  1.00800000E+00  1.00800000E+00  1.60000000E+01  1.00800000E+00  1.00800000E+00
  1.60000000E+01  1.00800000E+00  1.00800000E+00  1.60000000E+01  1.00800000E+00
  1.00800000E+00  1.60000000E+01  1.00800000E+00  1.00800000E+00  1.60000000E+01
  1.00800000E+00  1.00800000E+00  1.60000000E+01  1.00800000E+00  1.00800000E+00
  1.60000000E+01  1.00800000E+00  1.00800000E+00  1.60000000E+01  1.00800000E+00
  1.00800000E+00  1.60000000E+01  1.00800000E+00  1.00800000E+00  1.60000000E+01
  1.00800000E+00  1.00800000E+00  1.60000000E+01  1.00800000E+00  1.00800000E+00
  1.60000000E+01  1.00800000E+00  1.00800000E+00  1.60000000E+01  1.00800000E+00
  1.00800000E+00  1.60000000E+01  1.00800000E+00  1.00800000E+00  1.60000000E+01
  1.00800000E+00  1.00800000E+00  1.60000000E+01  1.00800000E+00  1.00800000E+00
  1.60000000E+01  1.00800000E+00  1.00800000E+00  1.60000000E+01  1.00800000E+00
  1.00800000E+00  1.60000000E+01  1.00800000E+00  1.00800000E+00  1.60000000E+01
  1.00800000E+00  1.00800000E+00  1.60000000E+01  1.00800000E+00  1.00800000E+00
  1.60000000E+01  1.00800000E+00  1.00800000E+00  1.60000000E+01  1.00800000E+00
  1.00800000E+00  1.60000000E+01  1.00800000E+00  1.00800000E+00  1.60000000E+01
  1.00800000E+00  1.00800000E+00  1.60000000E+01  1.00800000E+00  1.00800000E+00
  1.60000000E+01  1.00800000E+00  1.00800000E+00  1.60000000E+01  1.00800000E+00
  1.00800000E+00  1.60000000E+01  1.00800000E+00  1.00800000E+00  1.60000000E+01
  1.00800000E+00  1.00800000E+00  1.60000000E+01  1.00800000E+00  1.00800000E+00
  1.60000000E+01  1.00800000E+00  1.00800000E+00  1.60000000E+01  1.00800000E+00
  1.00800000E+00  1.60000000E+01  1.00800000E+00  1.00800000E+00  1.60000000E+01
  1.00800000E+00  1.00800000E+00  1.60000000E+01  1.00800000E+00  1.00800000E+00
  1.60000000E+01  1.00800000E+00  1.00800000E+00  1.60000000E+01  1.00800000E+00
  1.00800000E+00  1.60000000E+01  1.00800000E+00  1.00800000E+00  1.60000000E+01
  1.00800000E+00  1.00800000E+00  1.60000000E+01  1.00800000E+00  1.00800000E+00
  1.60000000E+01  1.00800000E+00  1.00800000E+00  1.60000000E+01  1.00800000E+00
  1.00800000E+00  1.60000000E+01  1.00800000E+00  1.00800000E+00  1.60000000E+01
  1.00800000E+00  1.00800000E+00  1.60000000E+01  1.00800000E+00  1.00800000E+00
  1.60000000E+01  1.00800000E+00  1.00800000E+00  1.60000000E+01  1.00800000E+00
  1.00800000E+00  1.60000000E+01  1.00800000E+00  1.00800000E+00  1.60000000E+01
  1.00800000E+00  1.00800000E+00  1.60000000E+01  1.00800000E+00  1.00800000E+00
  1.60000000E+01  1.00800000E+00  1.00800000E+00  1.60000000E+01  1.00800000E+00
  1.00800000E+00  1.60000000E+01  1.00800000E+00  1.00800000E+00  1.60000000E+01
  1.00800000E+00  1.00800000E+00  1.60000000E+01  1.00800000E+00  1.00800000E+00
  1.60000000E+01  1.00800000E+00  1.00800000E+00  1.60000000E+01  1.00800000E+00
  1.00800000E+00  1.60000000E+01  1.00800000E+00  1.00800000E+00  1.60000000E+01
  1.00800000E+00  1.00800000E+00  1.60000000E+01  1.00800000E+00  1.00800000E+00
  1.60000000E+01  1.00800000E+00  1.00800000E+00  1.60000000E+01  1.00800000E+00
  1.00800000E+00  1.60000000E+01  1.00800000E+00  1.00800000E+00  1.60000000E+01
  1.00800000E+00  1.00800000E+00  1.60000000E+01  1.00800000E+00  1.00800000E+00
  1.60000000E+01  1.00800000E+00  1.00800000E+00  1.60000000E+01  1.00800000E+00
  1.00800000E+00  1.60000000E+01  1.00800000E+00  1.00800000E+00  1.60000000E+01
  1.00800000E+00  1.00800000E+00  1.60000000E+01  1.00800000E+00  1.00800000E+00
  1.60000000E+01  1.00800000E+00  1.00800000E+00  1.60000000E+01  1.00800000E+00
  1.00800000E+00  1.60000000E+01  1.00800000E+00  1.00800000E+00  1.60000000E+01
  1.00800000E+00  1.00800000E+00  1.60000000E+01  1.00800000E+00  1.00800000E+00
  1.60000000E+01  1.00800000E+00  1.00800000E+00  1.60000000E+01  1.00800000E+00
  1.00800000E+00  1.60000000E+01  1.00800000E+00  1.00800000E+00  1.60000000E+01
  1.00800000E+00  1.00800000E+00  1.60000000E+01  1.00800000E+00  1.00800000E+00
  1.60000000E+01  1.00800000E+00  1.00800000E+00  1.60000000E+01  1.00800000E+00
  1.00800000E+00  1.60000000E+01  1.00800000E+00  1.00800000E+00  1.60000000E+01
  1.00800000E+00  1.00800000E+00  1.60000000E+01  1.00800000E+00  1.00800000E+00
  1.60000000E+01  1.00800000E+00  1.00800000E+00  1.60000000E+01  1.00800000E+00
  1.00800000E+00  1.60000000E+01  1.00800000E+00  1.00800000E+00  1.60000000E+01
  1.00800000E+00  1.00800000E+00  1.60000000E+01  1.00800000E+00  1.00800000E+00
  1.60000000E+01  1.00800000E+00  1.00800000E+00  1.60000000E+01  1.00800000E+00
  1.00800000E+00  1.60000000E+01  1.00800000E+00  1.00800000E+00  1.60000000E+01
  1.00800000E+00  1.00800000E+00  1.60000000E+01  1.00800000E+00  1.00800000E+00
  1.60000000E+01  1.00800000E+00  1.00800000E+00  1.60000000E+01  1.00800000E+00
  1.00800000E+00  1.60000000E+01  1.00800000E+00  1.00800000E+00  1.60000000E+01
  1.00800000E+00  1.00800000E+00  1.60000000E+01  1.00800000E+00  1.00800000E+00
  1.60000000E+01  1.00800000E+00  1.00800000E+00  1.60000000E+01  1.00800000E+00
  1.00800000E+00  1.60000000E+01  1.00800000E+00  1.00800000E+00  1.60000000E+01
  1.00800000E+00  1.00800000E+00  1.60000000E+01  1.00800000E+00  1.00800000E+00
  1.60000000E+01  1.00800000E+00  1.00800000E+00  1.60000000E+01  1.00800000E+00
  1.00800000E+00  1.60000000E+01  1.00800000E+00  1.00800000E+00  1.60000000E+01
  1.00800000E+00  1.00800000E+00  1.60000000E+01  1.00800000E+00  1.00800000E+00
  1.60000000E+01  1.00800000E+00  1.00800000E+00  1.60000000E+01  1.00800000E+00
  1.00800000E+00  1.60000000E+01  1.00800000E+00  1.00800000E+00  1.60000000E+01
  1.00800000E+00  1.00800000E+00  1.60000000E+01  1.00800000E+00  1.00800000E+00
  1.60000000E+01  1.00800000E+00  1.00800000E+00  1.60000000E+01  1.00800000E+00
  1.00800000E+00  1.60000000E+01  1.00800000E+00  1.00800000E+00  1.60000000E+01
  1.00800000E+00  1.00800000E+00  1.60000000E+01  1.00800000E+00  1.00800000E+00
  1.60000000E+01  1.00800000E+00  1.00800000E+00  1.60000000E+01  1.00800000E+00
  1.00800000E+00  1.60000000E+01  1.00800000E+00  1.00800000E+00  1.60000000E+01
  1.00800000E+00  1.00800000E+00  1.60000000E+01  1.00800000E+00  1.00800000E+00
  1.60000000E+01  1.00800000E+00  1.00800000E+00  1.60000000E+01  1.00800000E+00
  1.00800000E+00  1.60000000E+01  1.00800000E+00  1.00800000E+00  1.60000000E+01
  1.00800000E+00  1.00800000E+00  1.60000000E+01  1.00800000E+00  1.00800000E+00
  1.60000000E+01  1.00800000E+00  1.00800000E+00  1.60000000E+01  1.00800000E+00
  1.00800000E+00  1.60000000E+01  1.00800000E+00  1.00800000E+00  1.60000000E+01
  1.00800000E+00  1.00800000E+00  1.60000000E+01  1.00800000E+00  1.00800000E+00
  1.60000000E+01  1.00800000E+00  1.00800000E+00  1.60000000E+01  1.00800000E+00
  1.00800000E+00  1.60000000E+01  1.00800000E+00  1.00800000E+00  1.60000000E+01
  1.00800000E+00  1.00800000E+00  1.60000000E+01  1.00800000E+00  1.00800000E+00
  1.60000000E+01  1.00800000E+00  1.00800000E+00  1.60000000E+01  1.00800000E+00
  1.00800000E+00  1.60000000E+01  1.00800000E+00  1.00800000E+00  1.60000000E+01
  1.00800000E+00  1.00800000E+00  1.60000000E+01  1.00800000E+00  1.00800000E+00
  1.60000000E+01  1.00800000E+00  1.00800000E+00  1.60000000E+01  1.00800000E+00
  1.00800000E+00  1.60000000E+01  1.00800000E+00  1.00800000E+00  1.60000000E+01
  1.00800000E+00  1.00800000E+00  1.60000000E+01  1.00800000E+00  1.00800000E+00
  1.60000000E+01  1.00800000E+00  1.00800000E+00  1.60000000E+01  1.00800000E+00
  1.00800000E+00  1.60000000E+01  1.00800000E+00  1.00800000E+00  1.60000000E+01
  1.00800000E+00  1.00800000E+00  1.60000000E+01  1.00800000E+00  1.00800000E+00
  1.60000000E+01  1.00800000E+00  1.00800000E+00  1.60000000E+01  1.00800000E+00
  1.00800000E+00  1.60000000E+01  1.00800000E+00  1.00800000E+00  1.60000000E+01
  1.00800000E+00  1.00800000E+00  1.60000000E+01  1.00800000E+00  1.00800000E+00
  1.60000000E+01  1.00800000E+00  1.00800000E+00  1.60000000E+01  1.00800000E+00
  1.00800000E+00  1.60000000E+01  1.00800000E+00  1.00800000E+00  1.60000000E+01
  1.00800000E+00  1.00800000E+00  1.60000000E+01  1.00800000E+00  1.00800000E+00
  1.60000000E+01  1.00800000E+00  1.00800000E+00  1.60000000E+01  1.00800000E+00
  1.00800000E+00  1.60000000E+01  1.00800000E+00  1.00800000E+00  1.60000000E+01
  1.00800000E+00  1.00800000E+00  1.60000000E+01  1.00800000E+00  1.00800000E+00
  1.60000000E+01  1.00800000E+00  1.00800000E+00  1.60000000E+01  1.00800000E+00
  1.00800000E+00  1.60000000E+01  1.00800000E+00  1.00800000E+00  1.60000000E+01
  1.00800000E+00  1.00800000E+00  1.60000000E+01  1.00800000E+00  1.00800000E+00
  1.60000000E+01  1.00800000E+00  1.00800000E+00  1.60000000E+01  1.00800000E+00
  1.00800000E+00  1.60000000E+01  1.00800000E+00  1.00800000E+00  1.60000000E+01
  1.00800000E+00  1.00800000E+00  1.60000000E+01  1.00800000E+00  1.00800000E+00
  1.60000000E+01  1.00800000E+00  1.00800000E+00  1.60000000E+01  1.00800000E+00
  1.00800000E+00  1.60000000E+01  1.00800000E+00  1.00800000E+00  1.60000000E+01
  1.00800000E+00  1.00800000E+00  1.60000000E+01  1.00800000E+00  1.00800000E+00
  1.60000000E+01  1.00800000E+00  1.00800000E+00  1.60000000E+01  1.00800000E+00
  1.00800000E+00  1.60000000E+01  1.00800000E+00  1.00800000E+00  1.60000000E+01
  1.00800000E+00  1.00800000E+00  1.60000000E+01  1.00800000E+00  1.00800000E+00
  1.60000000E+01  1.00800000E+00  1.00800000E+00  1.60000000E+01  1.00800000E+00
  1.00800000E+00  1.60000000E+01  1.00800000E+00  1.00800000E+00  1.60000000E+01
  1.00800000E+00  1.00800000E+00  1.60000000E+01  1.00800000E+00  1.00800000E+00
  1.60000000E+01  1.00800000E+00  1.00800000E+00  1.60000000E+01  1.00800000E+00
  1.00800000E+00  1.60000000E+01  1.00800000E+00  1.00800000E+00  1.60000000E+01
  1.00800000E+00  1.00800000E+00  1.60000000E+01  1.00800000E+00  1.00800000E+00
  1.60000000E+01  1.00800000E+00  1.00800000E+00  1.60000000E+01  1.00800000E+00
  1.00800000E+00  1.60000000E+01  1.00800000E+00  1.00800000E+00  1.60000000E+01
  1.00800000E+00  1.00800000E+00  1.60000000E+01  1.00800000E+00  1.00800000E+00
  1.60000000E+01  1.00800000E+00  1.00800000E+00  1.60000000E+01  1.00800000E+00
  1.00800000E+00  1.60000000E+01  1.00800000E+00  1.00800000E+00  1.60000000E+01
  1.00800000E+00  1.00800000E+00  1.60000000E+01  1.00800000E+00  1.00800000E+00
  1.60000000E+01  1.00800000E+00  1.00800000E+00  1.60000000E+01  1.00800000E+00
  1.00800000E+00  1.60000000E+01  1.00800000E+00  1.00800000E+00  1.60000000E+01
  1.00800000E+00  1.00800000E+00  1.60000000E+01  1.00800000E+00  1.00800000E+00
  1.60000000E+01  1.00800000E+00  1.00800000E+00  1.60000000E+01  1.00800000E+00
  1.00800000E+00  1.60000000E+01  1.00800000E+00  1.00800000E+00  1.60000000E+01
  1.00800000E+00  1.00800000E+00  1.60000000E+01  1.00800000E+00  1.00800000E+00
  1.60000000E+01  1.00800000E+00  1.00800000E+00  1.60000000E+01  1.00800000E+00
  1.00800000E+00  1.60000000E+01  1.00800000E+00  1.00800000E+00  1.60000000E+01
  1.00800000E+00  1.00800000E+00  1.60000000E+01  1.00800000E+00  1.00800000E+00
  1.60000000E+01  1.00800000E+00  1.00800000E+00  1.60000000E+01  1.00800000E+00
  1.00800000E+00  1.60000000E+01  1.00800000E+00  1.00800000E+00  1.60000000E+01
  1.00800000E+00  1.00800000E+00  1.60000000E+01  1.00800000E+00  1.00800000E+00
  1.60000000E+01  1.00800000E+00  1.00800000E+00  1.60000000E+01  1.00800000E+00
  1.00800000E+00  1.60000000E+01  1.00800000E+00  1.00800000E+00  1.60000000E+01
  1.00800000E+00  1.00800000E+00  1.60000000E+01  1.00800000E+00  1.00800000E+00
  1.60000000E+01  1.00800000E+00  1.00800000E+00  1.60000000E+01  1.00800000E+00
  1.00800000E+00  1.60000000E+01  1.00800000E+00  1.00800000E+00  1.60000000E+01
  1.00800000E+00  1.00800000E+00  1.60000000E+01  1.00800000E+00  1.00800000E+00
  1.60000000E+01  1.00800000E+00  1.00800000E+00  1.60000000E+01  1.00800000E+00
  1.00800000E+00  1.60000000E+01  1.00800000E+00  1.00800000E+00  1.60000000E+01
  1.00800000E+00  1.00800000E+00  1.60000000E+01  1.00800000E+00  1.00800000E+00
  1.60000000E+01  1.00800000E+00  1.00800000E+00  1.60000000E+01  1.00800000E+00
  1.00800000E+00  1.60000000E+01  1.00800000E+00  1.00800000E+00  1.60000000E+01
  1.00800000E+00  1.00800000E+00  1.60000000E+01  1.00800000E+00  1.00800000E+00
  1.60000000E+01  1.00800000E+00  1.00800000E+00  1.60000000E+01  1.00800000E+00
  1.00800000E+00  1.60000000E+01  1.00800000E+00  1.00800000E+00  1.60000000E+01
  1.00800000E+00  1.00800000E+00  1.60000000E+01  1.00800000E+00  1.00800000E+00
  1.60000000E+01  1.00800000E+00  1.00800000E+00  1.60000000E+01  1.00800000E+00
  1.00800000E+00  1.60000000E+01  1.00800000E+00  1.00800000E+00  1.60000000E+01
  1.00800000E+00  1.00800000E+00  1.60000000E+01  1.00800000E+00  1.00800000E+00
  1.60000000E+01  1.00800000E+00  1.00800000E+00  1.60000000E+01  1.00800000E+00
  1.00800000E+00  1.60000000E+01  1.00800000E+00  1.00800000E+00  1.60000000E+01
  1.00800000E+00  1.00800000E+00  1.60000000E+01  1.00800000E+00  1.00800000E+00
  1.60000000E+01  1.00800000E+00  1.00800000E+00  1.60000000E+01  1.00800000E+00
  1.00800000E+00  1.60000000E+01  1.00800000E+00  1.00800000E+00  1.60000000E+01
  1.00800000E+00  1.00800000E+00  1.60000000E+01  1.00800000E+00  1.00800000E+00
  1.60000000E+01  1.00800000E+00  1.00800000E+00  1.60000000E+01  1.00800000E+00
  1.00800000E+00  1.60000000E+01  1.00800000E+00  1.00800000E+00  1.60000000E+01
  1.00800000E+00  1.00800000E+00  1.60000000E+01  1.00800000E+00  1.00800000E+00
  1.60000000E+01  1.00800000E+00  1.00800000E+00  1.60000000E+01  1.00800000E+00
  1.00800000E+00  1.60000000E+01  1.00800000E+00  1.00800000E+00  1.60000000E+01
  1.00800000E+00  1.00800000E+00  1.60000000E+01  1.00800000E+00  1.00800000E+00
  1.60000000E+01  1.00800000E+00  1.00800000E+00  1.60000000E+01  1.00800000E+00
  1.00800000E+00  1.60000000E+01  1.00800000E+00  1.00800000E+00  1.60000000E+01
  1.00800000E+00  1.00800000E+00  1.60000000E+01  1.00800000E+00  1.00800000E+00
  1.60000000E+01  1.00800000E+00  1.00800000E+00  1.60000000E+01  1.00800000E+00
  1.00800000E+00  1.60000000E+01  1.00800000E+00  1.00800000E+00  1.60000000E+01
  1.00800000E+00  1.00800000E+00  1.60000000E+01  1.00800000E+00  1.00800000E+00
  1.60000000E+01  1.00800000E+00  1.00800000E+00  1.60000000E+01  1.00800000E+00
  1.00800000E+00  1.60000000E+01  1.00800000E+00  1.00800000E+00  1.60000000E+01
  1.00800000E+00  1.00800000E+00  1.60000000E+01  1.00800000E+00  1.00800000E+00
  1.60000000E+01  1.00800000E+00  1.00800000E+00  1.60000000E+01  1.00800000E+00
  1.00800000E+00  1.60000000E+01  1.00800000E+00  1.00800000E+00  1.60000000E+01
  1.00800000E+00  1.00800000E+00  1.60000000E+01  1.00800000E+00  1.00800000E+00
  1.60000000E+01  1.00800000E+00  1.00800000E+00  1.60000000E+01  1.00800000E+00
  1.00800000E+00  1.60000000E+01  1.00800000E+00  1.00800000E+00  1.60000000E+01
  1.00800000E+00  1.00800000E+00  1.60000000E+01  1.00800000E+00  1.00800000E+00
  1.60000000E+01  1.00800000E+00  1.00800000E+00  1.60000000E+01  1.00800000E+00
  1.00800000E+00  1.60000000E+01  1.00800000E+00  1.00800000E+00  1.60000000E+01
  1.00800000E+00  1.00800000E+00  1.60000000E+01  1.00800000E+00  1.00800000E+00
  1.60000000E+01  1.00800000E+00  1.00800000E+00  1.60000000E+01  1.00800000E+00
  1.00800000E+00  1.60000000E+01  1.00800000E+00  1.00800000E+00  1.60000000E+01
  1.00800000E+00  1.00800000E+00  1.60000000E+01  1.00800000E+00  1.00800000E+00
  1.60000000E+01  1.00800000E+00  1.00800000E+00  1.60000000E+01  1.00800000E+00
  1.00800000E+00  1.60000000E+01  1.00800000E+00  1.00800000E+00  1.60000000E+01
  1.00800000E+00  1.00800000E+00  1.60000000E+01  1.00800000E+00  1.00800000E+00
  1.60000000E+01  1.00800000E+00  1.00800000E+00  1.60000000E+01  1.00800000E+00
  1.00800000E+00  1.60000000E+01  1.00800000E+00  1.00800000E+00  1.60000000E+01
  1.00800000E+00  1.00800000E+00  1.60000000E+01  1.00800000E+00  1.00800000E+00
  1.60000000E+01  1.00800000E+00  1.00800000E+00  1.60000000E+01  1.00800000E+00
  1.00800000E+00  1.60000000E+01  1.00800000E+00  1.00800000E+00  1.60000000E+01
  1.00800000E+00  1.00800000E+00  1.60000000E+01  1.00800000E+00  1.00800000E+00
  1.60000000E+01  1.00800000E+00  1.00800000E+00  1.60000000E+01  1.00800000E+00
  1.00800000E+00  1.60000000E+01  1.00800000E+00  1.00800000E+00  1.60000000E+01
  1.00800000E+00  1.00800000E+00  1.60000000E+01  1.00800000E+00  1.00800000E+00
  1.60000000E+01  1.00800000E+00  1.00800000E+00  1.60000000E+01  1.00800000E+00
  1.00800000E+00  1.60000000E+01  1.00800000E+00  1.00800000E+00  1.60000000E+01
  1.00800000E+00  1.00800000E+00  1.60000000E+01  1.00800000E+00  1.00800000E+00
  1.60000000E+01  1.00800000E+00  1.00800000E+00  1.60000000E+01  1.00800000E+00
  1.00800000E+00  1.60000000E+01  1.00800000E+00  1.00800000E+00  1.60000000E+01
  1.00800000E+00  1.00800000E+00  1.60000000E+01  1.00800000E+00  1.00800000E+00
  1.60000000E+01  1.00800000E+00  1.00800000E+00  1.60000000E+01  1.00800000E+00
  1.00800000E+00  1.60000000E+01  1.00800000E+00  1.00800000E+00  1.60000000E+01
  1.00800000E+00  1.00800000E+00  1.60000000E+01  1.00800000E+00  1.00800000E+00
  1.60000000E+01  1.00800000E+00  1.00800000E+00  1.60000000E+01  1.00800000E+00
  1.00800000E+00  1.60000000E+01  1.00800000E+00  1.00800000E+00  1.60000000E+01
  1.00800000E+00  1.00800000E+00  1.60000000E+01  1.00800000E+00  1.00800000E+00
  1.60000000E+01  1.00800000E+00  1.00800000E+00  1.60000000E+01  1.00800000E+00
  1.00800000E+00  1.60000000E+01  1.00800000E+00  1.00800000E+00  1.60000000E+01
  1.00800000E+00  1.00800000E+00  1.60000000E+01  1.00800000E+00  1.00800000E+00
  1.60000000E+01  1.00800000E+00  1.00800000E+00  1.60000000E+01  1.00800000E+00
  1.00800000E+00  1.60000000E+01  1.00800000E+00  1.00800000E+00  1.60000000E+01
  1.00800000E+00  1.00800000E+00  1.60000000E+01  1.00800000E+00  1.00800000E+00
  1.60000000E+01  1.00800000E+00  1.00800000E+00  1.60000000E+01  1.00800000E+00
  1.00800000E+00  1.60000000E+01  1.00800000E+00  1.00800000E+00  1.60000000E+01
  1.00800000E+00  1.00800000E+00  1.60000000E+01  1.00800000E+00  1.00800000E+00
  1.60000000E+01  1.00800000E+00  1.00800000E+00  1.60000000E+01  1.00800000E+00
  1.00800000E+00  1.60000000E+01  1.00800000E+00  1.00800000E+00  1.60000000E+01
  1.00800000E+00  1.00800000E+00  1.60000000E+01  1.00800000E+00  1.00800000E+00
  1.60000000E+01  1.00800000E+00  1.00800000E+00  1.60000000E+01  1.00800000E+00
  1.00800000E+00  1.60000000E+01  1.00800000E+00  1.00800000E+00  1.60000000E+01
  1.00800000E+00  1.00800000E+00  1.60000000E+01  1.00800000E+00  1.00800000E+00
  1.60000000E+01  1.00800000E+00  1.00800000E+00  1.60000000E+01  1.00800000E+00
  1.00800000E+00  1.60000000E+01  1.00800000E+00  1.00800000E+00  1.60000000E+01
  1.00800000E+00  1.00800000E+00  1.60000000E+01  1.00800000E+00  1.00800000E+00
  1.60000000E+01  1.00800000E+00  1.00800000E+00  1.60000000E+01  1.00800000E+00
  1.00800000E+00  1.60000000E+01  1.00800000E+00  1.00800000E+00  1.60000000E+01
  1.00800000E+00  1.00800000E+00  1.60000000E+01  1.00800000E+00  1.00800000E+00
  1.60000000E+01  1.00800000E+00  1.00800000E+00  1.60000000E+01  1.00800000E+00
  1.00800000E+00  1.60000000E+01  1.00800000E+00  1.00800000E+00  1.60000000E+01
  1.00800000E+00  1.00800000E+00  1.60000000E+01  1.00800000E+00  1.00800000E+00
  1.60000000E+01  1.00800000E+00  1.00800000E+00  1.60000000E+01  1.00800000E+00
  1.00800000E+00  1.60000000E+01  1.00800000E+00  1.00800000E+00  1.60000000E+01
  1.00800000E+00  1.00800000E+00  1.60000000E+01  1.00800000E+00  1.00800000E+00
  1.60000000E+01  1.00800000E+00  1.00800000E+00  1.60000000E+01  1.00800000E+00
  1.00800000E+00  1.60000000E+01  1.00800000E+00  1.00800000E+00  1.60000000E+01
  1.00800000E+00  1.00800000E+00  1.60000000E+01  1.00800000E+00  1.00800000E+00
  1.60000000E+01  1.00800000E+00  1.00800000E+00  1.60000000E+01  1.00800000E+00
  1.00800000E+00  1.60000000E+01  1.00800000E+00  1.00800000E+00  1.60000000E+01
  1.00800000E+00  1.00800000E+00  1.60000000E+01  1.00800000E+00  1.00800000E+00
  1.60000000E+01  1.00800000E+00  1.00800000E+00  1.60000000E+01  1.00800000E+00
  1.00800000E+00  1.60000000E+01  1.00800000E+00  1.00800000E+00  1.60000000E+01
  1.00800000E+00  1.00800000E+00  1.60000000E+01  1.00800000E+00  1.00800000E+00
  1.60000000E+01  1.00800000E+00  1.00800000E+00  1.60000000E+01  1.00800000E+00
  1.00800000E+00  1.60000000E+01  1.00800000E+00  1.00800000E+00  1.60000000E+01
  1.00800000E+00  1.00800000E+00  1.60000000E+01  1.00800000E+00  1.00800000E+00
  1.60000000E+01  1.00800000E+00  1.00800000E+00  1.60000000E+01  1.00800000E+00
  1.00800000E+00  1.60000000E+01  1.00800000E+00  1.00800000E+00  1.60000000E+01
  1.00800000E+00  1.00800000E+00  1.60000000E+01  1.00800000E+00  1.00800000E+00
  1.60000000E+01  1.00800000E+00  1.00800000E+00  1.60000000E+01  1.00800000E+00
  1.00800000E+00  1.60000000E+01  1.00800000E+00  1.00800000E+00  1.60000000E+01
  1.00800000E+00  1.00800000E+00  1.60000000E+01  1.00800000E+00  1.00800000E+00
  1.60000000E+01  1.00800000E+00  1.00800000E+00  1.60000000E+01  1.00800000E+00
  1.00800000E+00  1.60000000E+01  1.00800000E+00  1.00800000E+00  1.60000000E+01
  1.00800000E+00  1.00800000E+00  1.60000000E+01  1.00800000E+00  1.00800000E+00
  1.60000000E+01  1.00800000E+00  1.00800000E+00  1.60000000E+01  1.00800000E+00
  1.00800000E+00  1.60000000E+01  1.00800000E+00  1.00800000E+00  1.60000000E+01
  1.00800000E+00  1.00800000E+00  1.60000000E+01  1.00800000E+00  1.00800000E+00
  1.60000000E+01  1.00800000E+00  1.00800000E+00  1.60000000E+01  1.00800000E+00
  1.00800000E+00  1.60000000E+01  1.00800000E+00  1.00800000E+00  1.60000000E+01
  1.00800000E+00  1.00800000E+00  1.60000000E+01  1.00800000E+00  1.00800000E+00
  1.60000000E+01  1.00800000E+00  1.00800000E+00  1.60000000E+01  1.00800000E+00
  1.00800000E+00  1.60000000E+01  1.00800000E+00  1.00800000E+00  1.60000000E+01
  1.00800000E+00  1.00800000E+00  1.60000000E+01  1.00800000E+00  1.00800000E+00
  1.60000000E+01  1.00800000E+00  1.00800000E+00  1.60000000E+01  1.00800000E+00
  1.00800000E+00  1.60000000E+01  1.00800000E+00  1.00800000E+00  1.60000000E+01
  1.00800000E+00  1.00800000E+00  1.60000000E+01  1.00800000E+00  1.00800000E+00
  1.60000000E+01  1.00800000E+00  1.00800000E+00  1.60000000E+01  1.00800000E+00
  1.00800000E+00  1.60000000E+01  1.00800000E+00  1.00800000E+00  1.60000000E+01
  1.00800000E+00  1.00800000E+00  1.60000000E+01  1.00800000E+00  1.00800000E+00
  1.60000000E+01  1.00800000E+00  1.00800000E+00  1.60000000E+01  1.00800000E+00
  1.00800000E+00  1.60000000E+01  1.00800000E+00  1.00800000E+00  1.60000000E+01
  1.00800000E+00  1.00800000E+00  1.60000000E+01  1.00800000E+00  1.00800000E+00
  1.60000000E+01  1.00800000E+00  1.00800000E+00  1.60000000E+01  1.00800000E+00
  1.00800000E+00  1.60000000E+01  1.00800000E+00  1.00800000E+00  1.60000000E+01
  1.00800000E+00  1.00800000E+00  1.60000000E+01  1.00800000E+00  1.00800000E+00
  1.60000000E+01  1.00800000E+00  1.00800000E+00  1.60000000E+01  1.00800000E+00
  1.00800000E+00  1.60000000E+01  1.00800000E+00  1.00800000E+00  1.60000000E+01
  1.00800000E+00  1.00800000E+00  1.60000000E+01  1.00800000E+00  1.00800000E+00
  1.60000000E+01  1.00800000E+00  1.00800000E+00  1.60000000E+01  1.00800000E+00
  1.00800000E+00  1.60000000E+01  1.00800000E+00  1.00800000E+00  1.60000000E+01
  1.00800000E+00  1.00800000E+00  1.60000000E+01  1.00800000E+00  1.00800000E+00
  1.60000000E+01  1.00800000E+00  1.00800000E+00  1.60000000E+01  1.00800000E+00
  1.00800000E+00  1.60000000E+01  1.00800000E+00  1.00800000E+00  1.60000000E+01
  1.00800000E+00  1.00800000E+00  1.60000000E+01  1.00800000E+00  1.00800000E+00
  1.60000000E+01  1.00800000E+00  1.00800000E+00  1.60000000E+01  1.00800000E+00
  1.00800000E+00  1.60000000E+01  1.00800000E+00  1.00800000E+00  1.60000000E+01
  1.00800000E+00  1.00800000E+00  1.60000000E+01  1.00800000E+00  1.00800000E+00
  1.60000000E+01  1.00800000E+00  1.00800000E+00  1.60000000E+01  1.00800000E+00
  1.00800000E+00  1.60000000E+01  1.00800000E+00  1.00800000E+00  1.60000000E+01
  1.00800000E+00  1.00800000E+00  1.60000000E+01  1.00800000E+00  1.00800000E+00
  1.60000000E+01  1.00800000E+00  1.00800000E+00  1.60000000E+01  1.00800000E+00
  1.00800000E+00  1.60000000E+01  1.00800000E+00  1.00800000E+00  1.60000000E+01
  1.00800000E+00  1.00800000E+00  1.60000000E+01  1.00800000E+00  1.00800000E+00
  1.60000000E+01  1.00800000E+00  1.00800000E+00  1.60000000E+01  1.00800000E+00
  1.00800000E+00  1.60000000E+01  1.00800000E+00  1.00800000E+00  1.60000000E+01
  1.00800000E+00  1.00800000E+00  1.60000000E+01  1.00800000E+00  1.00800000E+00
  1.60000000E+01  1.00800000E+00  1.00800000E+00  1.60000000E+01  1.00800000E+00
  1.00800000E+00  1.60000000E+01  1.00800000E+00  1.00800000E+00  1.60000000E+01
  1.00800000E+00  1.00800000E+00  1.60000000E+01  1.00800000E+00  1.00800000E+00
  1.60000000E+01  1.00800000E+00  1.00800000E+00  1.60000000E+01  1.00800000E+00
  1.00800000E+00  1.60000000E+01  1.00800000E+00  1.00800000E+00  1.60000000E+01
  1.00800000E+00  1.00800000E+00  1.60000000E+01  1.00800000E+00  1.00800000E+00
  1.60000000E+01  1.00800000E+00  1.00800000E+00  1.60000000E+01  1.00800000E+00
  1.00800000E+00  1.60000000E+01  1.00800000E+00  1.00800000E+00  1.60000000E+01
  1.00800000E+00  1.00800000E+00  1.60000000E+01  1.00800000E+00  1.00800000E+00
  1.60000000E+01  1.00800000E+00  1.00800000E+00  1.60000000E+01  1.00800000E+00
  1.00800000E+00  1.60000000E+01  1.00800000E+00  1.00800000E+00  1.60000000E+01
  1.00800000E+00  1.00800000E+00  1.60000000E+01  1.00800000E+00  1.00800000E+00
  1.60000000E+01  1.00800000E+00  1.00800000E+00  1.60000000E+01  1.00800000E+00
  1.00800000E+00  1.60000000E+01  1.00800000E+00  1.00800000E+00  1.60000000E+01
  1.00800000E+00  1.00800000E+00  1.60000000E+01  1.00800000E+00  1.00800000E+00
  1.60000000E+01  1.00800000E+00  1.00800000E+00  1.60000000E+01  1.00800000E+00
  1.00800000E+00  1.60000000E+01  1.00800000E+00  1.00800000E+00  1.60000000E+01
  1.00800000E+00  1.00800000E+00  1.60000000E+01  1.00800000E+00  1.00800000E+00
  1.60000000E+01  1.00800000E+00  1.00800000E+00  1.60000000E+01  1.00800000E+00
  1.00800000E+00  1.60000000E+01  1.00800000E+00  1.00800000E+00  1.60000000E+01
  1.00800000E+00  1.00800000E+00  1.60000000E+01  1.00800000E+00  1.00800000E+00
  1.60000000E+01  1.00800000E+00  1.00800000E+00  1.60000000E+01  1.00800000E+00
  1.00800000E+00  1.60000000E+01  1.00800000E+00  1.00800000E+00  1.60000000E+01
  1.00800000E+00  1.00800000E+00  1.60000000E+01  1.00800000E+00  1.00800000E+00
  1.60000000E+01  1.00800000E+00  1.00800000E+00  1.60000000E+01  1.00800000E+00
  1.00800000E+00  1.60000000E+01  1.00800000E+00  1.00800000E+00  1.60000000E+01
  1.00800000E+00  1.00800000E+00  1.60000000E+01  1.00800000E+00  1.00800000E+00
  1.60000000E+01  1.00800000E+00  1.00800000E+00  1.60000000E+01  1.00800000E+00
  1.00800000E+00  1.60000000E+01  1.00800000E+00  1.00800000E+00  1.60000000E+01
  1.00800000E+00  1.00800000E+00  1.60000000E+01  1.00800000E+00  1.00800000E+00
  1.60000000E+01  1.00800000E+00  1.00800000E+00  1.60000000E+01  1.00800000E+00
  1.00800000E+00  1.60000000E+01  1.00800000E+00  1.00800000E+00  1.60000000E+01
  1.00800000E+00  1.00800000E+00  1.60000000E+01  1.00800000E+00  1.00800000E+00
  1.60000000E+01  1.00800000E+00  1.00800000E+00  1.60000000E+01  1.00800000E+00
  1.00800000E+00  1.60000000E+01  1.00800000E+00  1.00800000E+00  1.60000000E+01
  1.00800000E+00  1.00800000E+00  1.60000000E+01  1.00800000E+00  1.00800000E+00
  1.60000000E+01  1.00800000E+00  1.00800000E+00  1.60000000E+01  1.00800000E+00
  1.00800000E+00  1.60000000E+01  1.00800000E+00  1.00800000E+00  1.60000000E+01
  1.00800000E+00  1.00800000E+00  1.60000000E+01  1.00800000E+00  1.00800000E+00
  1.60000000E+01  1.00800000E+00  1.00800000E+00  1.60000000E+01  1.00800000E+00
  1.00800000E+00  1.60000000E+01  1.00800000E+00  1.00800000E+00  1.60000000E+01
  1.00800000E+00  1.00800000E+00  1.60000000E+01  1.00800000E+00  1.00800000E+00
  1.60000000E+01  1.00800000E+00  1.00800000E+00  1.60000000E+01  1.00800000E+00
  1.00800000E+00  1.60000000E+01  1.00800000E+00  1.00800000E+00  1.60000000E+01
  1.00800000E+00  1.00800000E+00  1.60000000E+01  1.00800000E+00  1.00800000E+00
  1.60000000E+01  1.00800000E+00  1.00800000E+00  1.60000000E+01  1.00800000E+00
  1.00800000E+00  1.60000000E+01  1.00800000E+00  1.00800000E+00  1.60000000E+01
  1.00800000E+00  1.00800000E+00  1.60000000E+01  1.00800000E+00  1.00800000E+00
  1.60000000E+01  1.00800000E+00  1.00800000E+00  1.60000000E+01  1.00800000E+00
  1.00800000E+00  1.60000000E+01  1.00800000E+00  1.00800000E+00  1.60000000E+01
  1.00800000E+00  1.00800000E+00  1.60000000E+01  1.00800000E+00  1.00800000E+00
  1.60000000E+01  1.00800000E+00  1.00800000E+00  1.60000000E+01  1.00800000E+00
  1.00800000E+00  1.60000000E+01  1.00800000E+00  1.00800000E+00  1.60000000E+01
  1.00800000E+00  1.00800000E+00  1.60000000E+01  1.00800000E+00  1.00800000E+00
  1.60000000E+01  1.00800000E+00  1.00800000E+00  1.60000000E+01  1.00800000E+00
  1.00800000E+00  1.60000000E+01  1.00800000E+00  1.00800000E+00  1.60000000E+01
  1.00800000E+00  1.00800000E+00  1.60000000E+01  1.00800000E+00  1.00800000E+00
  1.60000000E+01  1.00800000E+00  1.00800000E+00  1.60000000E+01  1.00800000E+00
  1.00800000E+00  1.60000000E+01  1.00800000E+00  1.00800000E+00  1.60000000E+01
  1.00800000E+00  1.00800000E+00  1.60000000E+01  1.00800000E+00  1.00800000E+00
  1.60000000E+01  1.00800000E+00  1.00800000E+00  1.60000000E+01  1.00800000E+00
  1.00800000E+00  1.60000000E+01  1.00800000E+00  1.00800000E+00  1.60000000E+01
  1.00800000E+00  1.00800000E+00  1.60000000E+01  1.00800000E+00  1.00800000E+00
  1.60000000E+01  1.00800000E+00  1.00800000E+00  1.60000000E+01  1.00800000E+00
  1.00800000E+00  1.60000000E+01  1.00800000E+00  1.00800000E+00  1.60000000E+01
  1.00800000E+00  1.00800000E+00  1.60000000E+01  1.00800000E+00  1.00800000E+00
  1.60000000E+01  1.00800000E+00  1.00800000E+00  1.60000000E+01  1.00800000E+00
  1.00800000E+00  1.60000000E+01  1.00800000E+00  1.00800000E+00  1.60000000E+01
  1.00800000E+00  1.00800000E+00  1.60000000E+01  1.00800000E+00  1.00800000E+00
  1.60000000E+01  1.00800000E+00  1.00800000E+00  1.60000000E+01  1.00800000E+00
  1.00800000E+00  1.60000000E+01  1.00800000E+00  1.00800000E+00  1.60000000E+01
  1.00800000E+00  1.00800000E+00  1.60000000E+01  1.00800000E+00  1.00800000E+00
  1.60000000E+01  1.00800000E+00  1.00800000E+00  1.60000000E+01  1.00800000E+00
  1.00800000E+00  1.60000000E+01  1.00800000E+00  1.00800000E+00  1.60000000E+01
  1.00800000E+00  1.00800000E+00  1.60000000E+01  1.00800000E+00  1.00800000E+00
  1.60000000E+01  1.00800000E+00  1.00800000E+00  1.60000000E+01  1.00800000E+00
  1.00800000E+00  1.60000000E+01  1.00800000E+00  1.00800000E+00  1.60000000E+01
  1.00800000E+00  1.00800000E+00  1.60000000E+01  1.00800000E+00  1.00800000E+00
  1.60000000E+01  1.00800000E+00  1.00800000E+00  1.60000000E+01  1.00800000E+00
  1.00800000E+00  1.60000000E+01  1.00800000E+00  1.00800000E+00  1.60000000E+01
  1.00800000E+00  1.00800000E+00  1.60000000E+01  1.00800000E+00  1.00800000E+00
  1.60000000E+01  1.00800000E+00  1.00800000E+00  1.60000000E+01  1.00800000E+00
  1.00800000E+00  1.60000000E+01  1.00800000E+00  1.00800000E+00  1.60000000E+01
  1.00800000E+00  1.00800000E+00  1.60000000E+01  1.00800000E+00  1.00800000E+00
  1.60000000E+01  1.00800000E+00  1.00800000E+00  1.60000000E+01  1.00800000E+00
  1.00800000E+00  1.60000000E+01  1.00800000E+00  1.00800000E+00  1.60000000E+01
  1.00800000E+00  1.00800000E+00  1.60000000E+01  1.00800000E+00  1.00800000E+00
  1.60000000E+01  1.00800000E+00  1.00800000E+00  1.60000000E+01  1.00800000E+00
  1.00800000E+00  1.60000000E+01  1.00800000E+00  1.00800000E+00  1.60000000E+01
  1.00800000E+00  1.00800000E+00  1.60000000E+01  1.00800000E+00  1.00800000E+00
  1.60000000E+01  1.00800000E+00  1.00800000E+00  1.60000000E+01  1.00800000E+00
  1.00800000E+00  1.60000000E+01  1.00800000E+00  1.00800000E+00  1.60000000E+01
  1.00800000E+00  1.00800000E+00  1.60000000E+01  1.00800000E+00  1.00800000E+00
  1.60000000E+01  1.00800000E+00  1.00800000E+00  1.60000000E+01  1.00800000E+00
  1.00800000E+00  1.60000000E+01  1.00800000E+00  1.00800000E+00  1.60000000E+01
  1.00800000E+00  1.00800000E+00  1.60000000E+01  1.00800000E+00  1.00800000E+00
  1.60000000E+01  1.00800000E+00  1.00800000E+00  1.60000000E+01  1.00800000E+00
  1.00800000E+00  1.60000000E+01  1.00800000E+00  1.00800000E+00  1.60000000E+01
  1.00800000E+00  1.00800000E+00  1.60000000E+01  1.00800000E+00  1.00800000E+00
  1.60000000E+01  1.00800000E+00  1.00800000E+00  1.60000000E+01  1.00800000E+00
  1.00800000E+00  1.60000000E+01  1.00800000E+00  1.00800000E+00  1.60000000E+01
  1.00800000E+00  1.00800000E+00  1.60000000E+01  1.00800000E+00  1.00800000E+00
  1.60000000E+01  1.00800000E+00  1.00800000E+00  1.60000000E+01  1.00800000E+00
  1.00800000E+00  1.60000000E+01  1.00800000E+00  1.00800000E+00  1.60000000E+01
  1.00800000E+00  1.00800000E+00  1.60000000E+01  1.00800000E+00  1.00800000E+00
  1.60000000E+01  1.00800000E+00  1.00800000E+00  1.60000000E+01  1.00800000E+00
  1.00800000E+00  1.60000000E+01  1.00800000E+00  1.00800000E+00  1.60000000E+01
  1.00800000E+00  1.00800000E+00  1.60000000E+01  1.00800000E+00  1.00800000E+00
  1.60000000E+01  1.00800000E+00  1.00800000E+00  1.60000000E+01  1.00800000E+00
  1.00800000E+00  1.60000000E+01  1.00800000E+00  1.00800000E+00  1.60000000E+01
  1.00800000E+00  1.00800000E+00  1.60000000E+01  1.00800000E+00  1.00800000E+00
  1.60000000E+01  1.00800000E+00  1.00800000E+00  1.60000000E+01  1.00800000E+00
  1.00800000E+00  1.60000000E+01  1.00800000E+00  1.00800000E+00  1.60000000E+01
  1.00800000E+00  1.00800000E+00  1.60000000E+01  1.00800000E+00  1.00800000E+00
  1.60000000E+01  1.00800000E+00  1.00800000E+00  1.60000000E+01  1.00800000E+00
  1.00800000E+00  1.60000000E+01  1.00800000E+00  1.00800000E+00  1.60000000E+01
  1.00800000E+00  1.00800000E+00  1.60000000E+01  1.00800000E+00  1.00800000E+00
  1.60000000E+01  1.00800000E+00  1.00800000E+00  1.60000000E+01  1.00800000E+00
  1.00800000E+00  1.60000000E+01  1.00800000E+00  1.00800000E+00  1.60000000E+01
  1.00800000E+00  1.00800000E+00  1.60000000E+01  1.00800000E+00  1.00800000E+00
  1.60000000E+01  1.00800000E+00  1.00800000E+00  1.60000000E+01  1.00800000E+00
  1.00800000E+00  1.60000000E+01  1.00800000E+00  1.00800000E+00  1.60000000E+01
  1.00800000E+00  1.00800000E+00  1.60000000E+01  1.00800000E+00  1.00800000E+00
  1.60000000E+01  1.00800000E+00  1.00800000E+00  1.60000000E+01  1.00800000E+00
  1.00800000E+00  1.60000000E+01  1.00800000E+00  1.00800000E+00  1.60000000E+01
  1.00800000E+00  1.00800000E+00  1.60000000E+01  1.00800000E+00  1.00800000E+00
  1.60000000E+01  1.00800000E+00  1.00800000E+00  1.60000000E+01  1.00800000E+00
  1.00800000E+00  1.60000000E+01  1.00800000E+00  1.00800000E+00  1.60000000E+01
  1.00800000E+00  1.00800000E+00  1.60000000E+01  1.00800000E+00  1.00800000E+00
  1.60000000E+01  1.00800000E+00  1.00800000E+00  1.60000000E+01  1.00800000E+00
  1.00800000E+00  1.60000000E+01  1.00800000E+00  1.00800000E+00  1.60000000E+01
  1.00800000E+00  1.00800000E+00  1.60000000E+01  1.00800000E+00  1.00800000E+00
  1.60000000E+01  1.00800000E+00  1.00800000E+00  1.60000000E+01  1.00800000E+00
  1.00800000E+00  1.60000000E+01  1.00800000E+00  1.00800000E+00  1.60000000E+01
  1.00800000E+00  1.00800000E+00  1.60000000E+01  1.00800000E+00  1.00800000E+00
  1.60000000E+01  1.00800000E+00  1.00800000E+00  1.60000000E+01  1.00800000E+00
  1.00800000E+00  1.60000000E+01  1.00800000E+00  1.00800000E+00  1.60000000E+01
  1.00800000E+00  1.00800000E+00  1.60000000E+01  1.00800000E+00  1.00800000E+00
  1.60000000E+01  1.00800000E+00  1.00800000E+00  1.60000000E+01  1.00800000E+00
  1.00800000E+00  1.60000000E+01  1.00800000E+00  1.00800000E+00  1.60000000E+01
  1.00800000E+00  1.00800000E+00  1.60000000E+01  1.00800000E+00  1.00800000E+00
  1.60000000E+01  1.00800000E+00  1.00800000E+00  1.60000000E+01  1.00800000E+00
  1.00800000E+00  1.60000000E+01  1.00800000E+00  1.00800000E+00  1.60000000E+01
  1.00800000E+00  1.00800000E+00  1.60000000E+01  1.00800000E+00  1.00800000E+00
  1.60000000E+01  1.00800000E+00  1.00800000E+00  1.60000000E+01  1.00800000E+00
  1.00800000E+00  1.60000000E+01  1.00800000E+00  1.00800000E+00  1.60000000E+01
  1.00800000E+00  1.00800000E+00  1.60000000E+01  1.00800000E+00  1.00800000E+00
  1.60000000E+01  1.00800000E+00  1.00800000E+00  1.60000000E+01  1.00800000E+00
  1.00800000E+00  1.60000000E+01  1.00800000E+00  1.00800000E+00  1.60000000E+01
  1.00800000E+00  1.00800000E+00  1.60000000E+01  1.00800000E+00  1.00800000E+00
  1.60000000E+01  1.00800000E+00  1.00800000E+00  1.60000000E+01  1.00800000E+00
  1.00800000E+00  1.60000000E+01  1.00800000E+00  1.00800000E+00  1.60000000E+01
  1.00800000E+00  1.00800000E+00  1.60000000E+01  1.00800000E+00  1.00800000E+00
  1.60000000E+01  1.00800000E+00  1.00800000E+00  1.60000000E+01  1.00800000E+00
  1.00800000E+00  1.60000000E+01  1.00800000E+00  1.00800000E+00  1.60000000E+01
  1.00800000E+00  1.00800000E+00  1.60000000E+01  1.00800000E+00  1.00800000E+00
  1.60000000E+01  1.00800000E+00  1.00800000E+00  1.60000000E+01  1.00800000E+00
  1.00800000E+00  1.60000000E+01  1.00800000E+00  1.00800000E+00  1.60000000E+01
  1.00800000E+00  1.00800000E+00  1.60000000E+01  1.00800000E+00  1.00800000E+00
  1.60000000E+01  1.00800000E+00  1.00800000E+00  1.60000000E+01  1.00800000E+00
  1.00800000E+00  1.60000000E+01  1.00800000E+00  1.00800000E+00  1.60000000E+01
  1.00800000E+00  1.00800000E+00  1.60000000E+01  1.00800000E+00  1.00800000E+00
  1.60000000E+01  1.00800000E+00  1.00800000E+00  1.60000000E+01  1.00800000E+00
  1.00800000E+00  1.60000000E+01  1.00800000E+00  1.00800000E+00  1.60000000E+01
  1.00800000E+00  1.00800000E+00  1.60000000E+01  1.00800000E+00  1.00800000E+00
  1.60000000E+01  1.00800000E+00  1.00800000E+00  1.60000000E+01  1.00800000E+00
  1.00800000E+00  1.60000000E+01  1.00800000E+00  1.00800000E+00  1.60000000E+01
  1.00800000E+00  1.00800000E+00  1.60000000E+01  1.00800000E+00  1.00800000E+00
  1.60000000E+01  1.00800000E+00  1.00800000E+00  1.60000000E+01  1.00800000E+00
  1.00800000E+00  1.60000000E+01  1.00800000E+00  1.00800000E+00  1.60000000E+01
  1.00800000E+00  1.00800000E+00  1.60000000E+01  1.00800000E+00  1.00800000E+00
  1.60000000E+01  1.00800000E+00  1.00800000E+00  1.60000000E+01  1.00800000E+00
  1.00800000E+00  1.60000000E+01  1.00800000E+00  1.00800000E+00  1.60000000E+01
  1.00800000E+00  1.00800000E+00  1.60000000E+01  1.00800000E+00  1.00800000E+00
  1.60000000E+01  1.00800000E+00  1.00800000E+00  1.60000000E+01  1.00800000E+00
  1.00800000E+00  1.60000000E+01  1.00800000E+00  1.00800000E+00  1.60000000E+01
  1.00800000E+00  1.00800000E+00  1.60000000E+01  1.00800000E+00  1.00800000E+00
  1.60000000E+01  1.00800000E+00  1.00800000E+00  1.60000000E+01  1.00800000E+00
  1.00800000E+00  1.60000000E+01  1.00800000E+00  1.00800000E+00  1.60000000E+01
  1.00800000E+00  1.00800000E+00  1.60000000E+01  1.00800000E+00  1.00800000E+00
  1.60000000E+01  1.00800000E+00  1.00800000E+00  1.60000000E+01  1.00800000E+00
  1.00800000E+00  1.60000000E+01  1.00800000E+00  1.00800000E+00  1.60000000E+01
  1.00800000E+00  1.00800000E+00  1.60000000E+01  1.00800000E+00  1.00800000E+00
  1.60000000E+01  1.00800000E+00  1.00800000E+00  1.60000000E+01  1.00800000E+00
  1.00800000E+00  1.60000000E+01  1.00800000E+00  1.00800000E+00  1.60000000E+01
  1.00800000E+00  1.00800000E+00  1.60000000E+01  1.00800000E+00  1.00800000E+00
  1.60000000E+01  1.00800000E+00  1.00800000E+00  1.60000000E+01  1.00800000E+00
  1.00800000E+00  1.60000000E+01  1.00800000E+00  1.00800000E+00  1.60000000E+01
  1.00800000E+00  1.00800000E+00  1.60000000E+01  1.00800000E+00  1.00800000E+00
  1.60000000E+01  1.00800000E+00  1.00800000E+00  1.60000000E+01  1.00800000E+00
  1.00800000E+00  1.60000000E+01  1.00800000E+00  1.00800000E+00  1.60000000E+01
  1.00800000E+00  1.00800000E+00  1.60000000E+01  1.00800000E+00  1.00800000E+00
  1.60000000E+01  1.00800000E+00  1.00800000E+00  1.60000000E+01  1.00800000E+00
  1.00800000E+00  1.60000000E+01  1.00800000E+00  1.00800000E+00  1.60000000E+01
  1.00800000E+00  1.00800000E+00  1.60000000E+01  1.00800000E+00  1.00800000E+00
  1.60000000E+01  1.00800000E+00  1.00800000E+00  1.60000000E+01  1.00800000E+00
  1.00800000E+00  1.60000000E+01  1.00800000E+00  1.00800000E+00  1.60000000E+01
  1.00800000E+00  1.00800000E+00  1.60000000E+01  1.00800000E+00  1.00800000E+00
  1.60000000E+01  1.00800000E+00  1.00800000E+00  1.60000000E+01  1.00800000E+00
  1.00800000E+00  1.60000000E+01  1.00800000E+00  1.00800000E+00  1.60000000E+01
  1.00800000E+00  1.00800000E+00  1.60000000E+01  1.00800000E+00  1.00800000E+00
  1.60000000E+01  1.00800000E+00  1.00800000E+00  1.60000000E+01  1.00800000E+00
  1.00800000E+00  1.60000000E+01  1.00800000E+00  1.00800000E+00  1.60000000E+01
  1.00800000E+00  1.00800000E+00  1.60000000E+01  1.00800000E+00  1.00800000E+00
  1.60000000E+01  1.00800000E+00  1.00800000E+00  1.60000000E+01  1.00800000E+00
  1.00800000E+00  1.60000000E+01  1.00800000E+00  1.00800000E+00  1.60000000E+01
  1.00800000E+00  1.00800000E+00  1.60000000E+01  1.00800000E+00  1.00800000E+00
  1.60000000E+01  1.00800000E+00  1.00800000E+00  1.60000000E+01  1.00800000E+00
  1.00800000E+00  1.60000000E+01  1.00800000E+00  1.00800000E+00  1.60000000E+01
  1.00800000E+00  1.00800000E+00  1.60000000E+01  1.00800000E+00  1.00800000E+00
  1.60000000E+01  1.00800000E+00  1.00800000E+00  1.60000000E+01  1.00800000E+00
  1.00800000E+00  1.60000000E+01  1.00800000E+00  1.00800000E+00  1.60000000E+01
  1.00800000E+00  1.00800000E+00  1.60000000E+01  1.00800000E+00  1.00800000E+00
  1.60000000E+01  1.00800000E+00  1.00800000E+00  1.60000000E+01  1.00800000E+00
  1.00800000E+00  1.60000000E+01  1.00800000E+00  1.00800000E+00  1.60000000E+01
  1.00800000E+00  1.00800000E+00  1.60000000E+01  1.00800000E+00  1.00800000E+00
  1.60000000E+01  1.00800000E+00  1.00800000E+00  1.60000000E+01  1.00800000E+00
  1.00800000E+00  1.60000000E+01  1.00800000E+00  1.00800000E+00  1.60000000E+01
  1.00800000E+00  1.00800000E+00  1.60000000E+01  1.00800000E+00  1.00800000E+00
  1.60000000E+01  1.00800000E+00  1.00800000E+00  1.60000000E+01  1.00800000E+00
  1.00800000E+00  1.60000000E+01  1.00800000E+00  1.00800000E+00  1.60000000E+01
  1.00800000E+00  1.00800000E+00  1.60000000E+01  1.00800000E+00  1.00800000E+00
  1.60000000E+01  1.00800000E+00  1.00800000E+00  1.60000000E+01  1.00800000E+00
  1.00800000E+00  1.60000000E+01  1.00800000E+00  1.00800000E+00  1.60000000E+01
  1.00800000E+00  1.00800000E+00  1.60000000E+01  1.00800000E+00  1.00800000E+00
  1.60000000E+01  1.00800000E+00  1.00800000E+00  1.60000000E+01  1.00800000E+00
  1.00800000E+00  1.60000000E+01  1.00800000E+00  1.00800000E+00  1.60000000E+01
  1.00800000E+00  1.00800000E+00  1.60000000E+01  1.00800000E+00  1.00800000E+00
  1.60000000E+01  1.00800000E+00  1.00800000E+00  1.60000000E+01  1.00800000E+00
  1.00800000E+00  1.60000000E+01  1.00800000E+00  1.00800000E+00  1.60000000E+01
  1.00800000E+00  1.00800000E+00  1.60000000E+01  1.00800000E+00  1.00800000E+00
  1.60000000E+01  1.00800000E+00  1.00800000E+00  1.60000000E+01  1.00800000E+00
  1.00800000E+00  1.60000000E+01  1.00800000E+00  1.00800000E+00  1.60000000E+01
  1.00800000E+00  1.00800000E+00  1.60000000E+01  1.00800000E+00  1.00800000E+00
  1.60000000E+01  1.00800000E+00  1.00800000E+00  1.60000000E+01  1.00800000E+00
  1.00800000E+00  1.60000000E+01  1.00800000E+00  1.00800000E+00  1.60000000E+01
  1.00800000E+00  1.00800000E+00  1.60000000E+01  1.00800000E+00  1.00800000E+00
  1.60000000E+01  1.00800000E+00  1.00800000E+00  1.60000000E+01  1.00800000E+00
  1.00800000E+00  1.60000000E+01  1.00800000E+00  1.00800000E+00  1.60000000E+01
  1.00800000E+00  1.00800000E+00  1.60000000E+01  1.00800000E+00  1.00800000E+00
  1.60000000E+01  1.00800000E+00  1.00800000E+00  1.60000000E+01  1.00800000E+00
  1.00800000E+00  1.60000000E+01  1.00800000E+00  1.00800000E+00  1.60000000E+01
  1.00800000E+00  1.00800000E+00  1.60000000E+01  1.00800000E+00  1.00800000E+00
  1.60000000E+01  1.00800000E+00  1.00800000E+00  1.60000000E+01  1.00800000E+00
  1.00800000E+00  1.60000000E+01  1.00800000E+00  1.00800000E+00  1.60000000E+01
  1.00800000E+00  1.00800000E+00  1.60000000E+01  1.00800000E+00  1.00800000E+00
  1.60000000E+01  1.00800000E+00  1.00800000E+00  1.60000000E+01  1.00800000E+00
  1.00800000E+00  1.60000000E+01  1.00800000E+00  1.00800000E+00  1.60000000E+01
  1.00800000E+00  1.00800000E+00  1.60000000E+01  1.00800000E+00  1.00800000E+00
  1.60000000E+01  1.00800000E+00  1.00800000E+00  1.60000000E+01  1.00800000E+00
  1.00800000E+00  1.60000000E+01  1.00800000E+00  1.00800000E+00  1.60000000E+01
  1.00800000E+00  1.00800000E+00  1.60000000E+01  1.00800000E+00  1.00800000E+00
  1.60000000E+01  1.00800000E+00  1.00800000E+00  1.60000000E+01  1.00800000E+00
  1.00800000E+00  1.60000000E+01  1.00800000E+00  1.00800000E+00  1.60000000E+01
  1.00800000E+00  1.00800000E+00  1.60000000E+01  1.00800000E+00  1.00800000E+00
  1.60000000E+01  1.00800000E+00  1.00800000E+00  1.60000000E+01  1.00800000E+00
  1.00800000E+00  1.60000000E+01  1.00800000E+00  1.00800000E+00  1.60000000E+01
  1.00800000E+00  1.00800000E+00  1.60000000E+01  1.00800000E+00  1.00800000E+00
  1.60000000E+01  1.00800000E+00  1.00800000E+00  1.60000000E+01  1.00800000E+00
  1.00800000E+00  1.60000000E+01  1.00800000E+00  1.00800000E+00  1.60000000E+01
  1.00800000E+00  1.00800000E+00  1.60000000E+01  1.00800000E+00  1.00800000E+00
  1.60000000E+01  1.00800000E+00  1.00800000E+00  1.60000000E+01  1.00800000E+00
  1.00800000E+00  1.60000000E+01  1.00800000E+00  1.00800000E+00  1.60000000E+01
  1.00800000E+00  1.00800000E+00  1.60000000E+01  1.00800000E+00  1.00800000E+00
  1.60000000E+01  1.00800000E+00  1.00800000E+00  1.60000000E+01  1.00800000E+00
  1.00800000E+00  1.60000000E+01  1.00800000E+00  1.00800000E+00  1.60000000E+01
  1.00800000E+00  1.00800000E+00  1.60000000E+01  1.00800000E+00  1.00800000E+00
  1.60000000E+01  1.00800000E+00  1.00800000E+00  1.60000000E+01  1.00800000E+00
  1.00800000E+00  1.60000000E+01  1.00800000E+00  1.00800000E+00  1.60000000E+01
  1.00800000E+00  1.00800000E+00  1.60000000E+01  1.00800000E+00  1.00800000E+00
  1.60000000E+01  1.00800000E+00  1.00800000E+00  1.60000000E+01  1.00800000E+00
  1.00800000E+00  1.60000000E+01  1.00800000E+00  1.00800000E+00  1.60000000E+01
  1.00800000E+00  1.00800000E+00  1.60000000E+01  1.00800000E+00  1.00800000E+00
  1.60000000E+01  1.00800000E+00  1.00800000E+00  1.60000000E+01  1.00800000E+00
  1.00800000E+00  1.60000000E+01  1.00800000E+00  1.00800000E+00  1.60000000E+01
  1.00800000E+00  1.00800000E+00  1.60000000E+01  1.00800000E+00  1.00800000E+00
  1.60000000E+01  1.00800000E+00  1.00800000E+00  1.60000000E+01  1.00800000E+00
  1.00800000E+00  1.60000000E+01  1.00800000E+00  1.00800000E+00  1.60000000E+01
  1.00800000E+00  1.00800000E+00  1.60000000E+01  1.00800000E+00  1.00800000E+00
  1.60000000E+01  1.00800000E+00  1.00800000E+00  1.60000000E+01  1.00800000E+00
  1.00800000E+00  1.60000000E+01  1.00800000E+00  1.00800000E+00  1.60000000E+01
  1.00800000E+00  1.00800000E+00  1.60000000E+01  1.00800000E+00  1.00800000E+00
  1.60000000E+01  1.00800000E+00  1.00800000E+00  1.60000000E+01  1.00800000E+00
  1.00800000E+00  1.60000000E+01  1.00800000E+00  1.00800000E+00  1.60000000E+01
  1.00800000E+00  1.00800000E+00  1.60000000E+01  1.00800000E+00  1.00800000E+00
  1.60000000E+01  1.00800000E+00  1.00800000E+00  1.60000000E+01  1.00800000E+00
  1.00800000E+00  1.60000000E+01  1.00800000E+00  1.00800000E+00  1.60000000E+01
  1.00800000E+00  1.00800000E+00  1.60000000E+01  1.00800000E+00  1.00800000E+00
  1.60000000E+01  1.00800000E+00  1.00800000E+00  1.60000000E+01  1.00800000E+00
  1.00800000E+00  1.60000000E+01  1.00800000E+00  1.00800000E+00  1.60000000E+01
  1.00800000E+00  1.00800000E+00  1.60000000E+01  1.00800000E+00  1.00800000E+00
  1.60000000E+01  1.00800000E+00  1.00800000E+00  1.60000000E+01  1.00800000E+00
  1.00800000E+00  1.60000000E+01  1.00800000E+00  1.00800000E+00  1.60000000E+01
  1.00800000E+00  1.00800000E+00  1.60000000E+01  1.00800000E+00  1.00800000E+00
  1.60000000E+01  1.00800000E+00  1.00800000E+00  1.60000000E+01  1.00800000E+00
  1.00800000E+00  1.60000000E+01  1.00800000E+00  1.00800000E+00  1.60000000E+01
  1.00800000E+00  1.00800000E+00  1.60000000E+01  1.00800000E+00  1.00800000E+00
  1.60000000E+01  1.00800000E+00  1.00800000E+00  1.60000000E+01  1.00800000E+00
  1.00800000E+00  1.60000000E+01  1.00800000E+00  1.00800000E+00  1.60000000E+01
  1.00800000E+00  1.00800000E+00  1.60000000E+01  1.00800000E+00  1.00800000E+00
  1.60000000E+01  1.00800000E+00  1.00800000E+00  1.60000000E+01  1.00800000E+00
  1.00800000E+00  1.60000000E+01  1.00800000E+00  1.00800000E+00  1.60000000E+01
  1.00800000E+00  1.00800000E+00  1.60000000E+01  1.00800000E+00  1.00800000E+00
  1.60000000E+01  1.00800000E+00  1.00800000E+00  1.60000000E+01  1.00800000E+00
  1.00800000E+00  1.60000000E+01  1.00800000E+00  1.00800000E+00  1.60000000E+01
  1.00800000E+00  1.00800000E+00  1.60000000E+01  1.00800000E+00  1.00800000E+00
  1.60000000E+01  1.00800000E+00  1.00800000E+00  1.60000000E+01  1.00800000E+00
  1.00800000E+00  1.60000000E+01  1.00800000E+00  1.00800000E+00  1.60000000E+01
  1.00800000E+00  1.00800000E+00  1.60000000E+01  1.00800000E+00  1.00800000E+00
  1.60000000E+01  1.00800000E+00  1.00800000E+00  1.60000000E+01  1.00800000E+00
  1.00800000E+00  1.60000000E+01  1.00800000E+00  1.00800000E+00  1.60000000E+01
  1.00800000E+00  1.00800000E+00  1.60000000E+01  1.00800000E+00  1.00800000E+00
  1.60000000E+01  1.00800000E+00  1.00800000E+00  1.60000000E+01  1.00800000E+00
  1.00800000E+00  1.60000000E+01  1.00800000E+00  1.00800000E+00  1.60000000E+01
  1.00800000E+00  1.00800000E+00  1.60000000E+01  1.00800000E+00  1.00800000E+00
  1.60000000E+01  1.00800000E+00  1.00800000E+00  1.60000000E+01  1.00800000E+00
  1.00800000E+00  1.60000000E+01  1.00800000E+00  1.00800000E+00  1.60000000E+01
  1.00800000E+00  1.00800000E+00  1.60000000E+01  1.00800000E+00  1.00800000E+00
  1.60000000E+01  1.00800000E+00  1.00800000E+00  1.60000000E+01  1.00800000E+00
  1.00800000E+00  1.60000000E+01  1.00800000E+00  1.00800000E+00  1.60000000E+01
  1.00800000E+00  1.00800000E+00  1.60000000E+01  1.00800000E+00  1.00800000E+00
  1.60000000E+01  1.00800000E+00  1.00800000E+00  1.60000000E+01  1.00800000E+00
  1.00800000E+00  1.60000000E+01  1.00800000E+00  1.00800000E+00  1.60000000E+01
  1.00800000E+00  1.00800000E+00  1.60000000E+01  1.00800000E+00  1.00800000E+00
  1.60000000E+01  1.00800000E+00  1.00800000E+00  1.60000000E+01  1.00800000E+00
  1.00800000E+00  1.60000000E+01  1.00800000E+00  1.00800000E+00  1.60000000E+01
  1.00800000E+00  1.00800000E+00  1.60000000E+01  1.00800000E+00  1.00800000E+00
  1.60000000E+01  1.00800000E+00  1.00800000E+00  1.60000000E+01  1.00800000E+00
  1.00800000E+00  1.60000000E+01  1.00800000E+00  1.00800000E+00  1.60000000E+01
  1.00800000E+00  1.00800000E+00  1.60000000E+01  1.00800000E+00  1.00800000E+00
  1.60000000E+01  1.00800000E+00  1.00800000E+00  1.60000000E+01  1.00800000E+00
  1.00800000E+00  1.60000000E+01  1.00800000E+00  1.00800000E+00  1.60000000E+01
  1.00800000E+00  1.00800000E+00  1.60000000E+01  1.00800000E+00  1.00800000E+00
  1.60000000E+01  1.00800000E+00  1.00800000E+00  1.60000000E+01  1.00800000E+00
  1.00800000E+00  1.60000000E+01  1.00800000E+00  1.00800000E+00  1.60000000E+01
  1.00800000E+00  1.00800000E+00  1.60000000E+01  1.00800000E+00  1.00800000E+00
  1.60000000E+01  1.00800000E+00  1.00800000E+00  1.60000000E+01  1.00800000E+00
  1.00800000E+00  1.60000000E+01  1.00800000E+00  1.00800000E+00  1.60000000E+01
  1.00800000E+00  1.00800000E+00  1.60000000E+01  1.00800000E+00  1.00800000E+00
  1.60000000E+01  1.00800000E+00  1.00800000E+00  1.60000000E+01  1.00800000E+00
  1.00800000E+00  1.60000000E+01  1.00800000E+00  1.00800000E+00  1.60000000E+01
  1.00800000E+00  1.00800000E+00  1.60000000E+01  1.00800000E+00  1.00800000E+00
  1.60000000E+01  1.00800000E+00  1.00800000E+00  1.60000000E+01  1.00800000E+00
  1.00800000E+00  1.60000000E+01  1.00800000E+00  1.00800000E+00  1.60000000E+01
  1.00800000E+00  1.00800000E+00  1.60000000E+01  1.00800000E+00  1.00800000E+00
  1.60000000E+01  1.00800000E+00  1.00800000E+00  1.60000000E+01  1.00800000E+00
  1.00800000E+00  1.60000000E+01  1.00800000E+00  1.00800000E+00  1.60000000E+01
  1.00800000E+00  1.00800000E+00  1.60000000E+01  1.00800000E+00  1.00800000E+00
  1.60000000E+01  1.00800000E+00  1.00800000E+00  1.60000000E+01  1.00800000E+00
  1.00800000E+00  1.60000000E+01  1.00800000E+00  1.00800000E+00  1.60000000E+01
  1.00800000E+00  1.00800000E+00  1.60000000E+01  1.00800000E+00  1.00800000E+00
  1.60000000E+01  1.00800000E+00  1.00800000E+00  1.60000000E+01  1.00800000E+00
  1.00800000E+00  1.60000000E+01  1.00800000E+00  1.00800000E+00  1.60000000E+01
  1.00800000E+00  1.00800000E+00  1.60000000E+01  1.00800000E+00  1.00800000E+00
  1.60000000E+01  1.00800000E+00  1.00800000E+00  1.60000000E+01  1.00800000E+00
  1.00800000E+00  1.60000000E+01  1.00800000E+00  1.00800000E+00  1.60000000E+01
  1.00800000E+00  1.00800000E+00  1.60000000E+01  1.00800000E+00  1.00800000E+00
  1.60000000E+01  1.00800000E+00  1.00800000E+00  1.60000000E+01  1.00800000E+00
  1.00800000E+00  1.60000000E+01  1.00800000E+00  1.00800000E+00  1.60000000E+01
  1.00800000E+00  1.00800000E+00  1.60000000E+01  1.00800000E+00  1.00800000E+00
  1.60000000E+01  1.00800000E+00  1.00800000E+00  1.60000000E+01  1.00800000E+00
  1.00800000E+00  1.60000000E+01  1.00800000E+00  1.00800000E+00  1.60000000E+01
  1.00800000E+00  1.00800000E+00  1.60000000E+01  1.00800000E+00  1.00800000E+00
  1.60000000E+01  1.00800000E+00  1.00800000E+00  1.60000000E+01  1.00800000E+00
  1.00800000E+00  1.60000000E+01  1.00800000E+00  1.00800000E+00  1.60000000E+01
  1.00800000E+00  1.00800000E+00  1.60000000E+01  1.00800000E+00  1.00800000E+00
  1.60000000E+01  1.00800000E+00  1.00800000E+00  1.60000000E+01  1.00800000E+00
  1.00800000E+00  1.60000000E+01  1.00800000E+00  1.00800000E+00  1.60000000E+01
  1.00800000E+00  1.00800000E+00  1.60000000E+01  1.00800000E+00  1.00800000E+00
  1.60000000E+01  1.00800000E+00  1.00800000E+00  1.60000000E+01  1.00800000E+00
  1.00800000E+00  1.60000000E+01  1.00800000E+00  1.00800000E+00  1.60000000E+01
  1.00800000E+00  1.00800000E+00  1.60000000E+01  1.00800000E+00  1.00800000E+00
  1.60000000E+01  1.00800000E+00  1.00800000E+00  1.60000000E+01  1.00800000E+00
  1.00800000E+00  1.60000000E+01  1.00800000E+00  1.00800000E+00  1.60000000E+01
  1.00800000E+00  1.00800000E+00  1.60000000E+01  1.00800000E+00  1.00800000E+00
  1.60000000E+01  1.00800000E+00  1.00800000E+00  1.60000000E+01  1.00800000E+00
  1.00800000E+00  1.60000000E+01  1.00800000E+00  1.00800000E+00  1.60000000E+01
  1.00800000E+00  1.00800000E+00  1.60000000E+01  1.00800000E+00  1.00800000E+00
  1.60000000E+01  1.00800000E+00  1.00800000E+00  1.60000000E+01  1.00800000E+00
  1.00800000E+00  1.60000000E+01  1.00800000E+00  1.00800000E+00  1.60000000E+01
  1.00800000E+00  1.00800000E+00  1.60000000E+01  1.00800000E+00  1.00800000E+00
  1.60000000E+01  1.00800000E+00  1.00800000E+00  1.60000000E+01  1.00800000E+00
  1.00800000E+00  1.60000000E+01  1.00800000E+00  1.00800000E+00  1.60000000E+01
  1.00800000E+00  1.00800000E+00  1.60000000E+01  1.00800000E+00  1.00800000E+00
  1.60000000E+01  1.00800000E+00  1.00800000E+00  1.60000000E+01  1.00800000E+00
  1.00800000E+00  1.60000000E+01  1.00800000E+00  1.00800000E+00  1.60000000E+01
  1.00800000E+00  1.00800000E+00  1.60000000E+01  1.00800000E+00  1.00800000E+00
  1.60000000E+01  1.00800000E+00  1.00800000E+00  1.60000000E+01  1.00800000E+00
  1.00800000E+00  1.60000000E+01  1.00800000E+00  1.00800000E+00  1.60000000E+01
  1.00800000E+00  1.00800000E+00  1.60000000E+01  1.00800000E+00  1.00800000E+00
  1.60000000E+01  1.00800000E+00  1.00800000E+00  1.60000000E+01  1.00800000E+00
  1.00800000E+00  1.60000000E+01  1.00800000E+00  1.00800000E+00  1.60000000E+01
  1.00800000E+00  1.00800000E+00  1.60000000E+01  1.00800000E+00  1.00800000E+00
  1.60000000E+01  1.00800000E+00  1.00800000E+00  1.60000000E+01  1.00800000E+00
  1.00800000E+00  1.60000000E+01  1.00800000E+00  1.00800000E+00  1.60000000E+01
  1.00800000E+00  1.00800000E+00  1.60000000E+01  1.00800000E+00  1.00800000E+00
  1.60000000E+01  1.00800000E+00  1.00800000E+00  1.60000000E+01  1.00800000E+00
  1.00800000E+00  1.60000000E+01  1.00800000E+00  1.00800000E+00  1.60000000E+01
  1.00800000E+00  1.00800000E+00  1.60000000E+01  1.00800000E+00  1.00800000E+00
  1.60000000E+01  1.00800000E+00  1.00800000E+00  1.60000000E+01  1.00800000E+00
  1.00800000E+00  1.60000000E+01  1.00800000E+00  1.00800000E+00  1.60000000E+01
  1.00800000E+00  1.00800000E+00  1.60000000E+01  1.00800000E+00  1.00800000E+00
  1.60000000E+01  1.00800000E+00  1.00800000E+00  1.60000000E+01  1.00800000E+00
  1.00800000E+00  1.60000000E+01  1.00800000E+00  1.00800000E+00  1.60000000E+01
  1.00800000E+00  1.00800000E+00  1.60000000E+01  1.00800000E+00  1.00800000E+00
  1.60000000E+01  1.00800000E+00  1.00800000E+00  1.60000000E+01  1.00800000E+00
  1.00800000E+00  1.60000000E+01  1.00800000E+00  1.00800000E+00  1.60000000E+01
  1.00800000E+00  1.00800000E+00  1.60000000E+01  1.00800000E+00  1.00800000E+00
  1.60000000E+01  1.00800000E+00  1.00800000E+00  1.60000000E+01  1.00800000E+00
  1.00800000E+00  1.60000000E+01  1.00800000E+00  1.00800000E+00  1.60000000E+01
  1.00800000E+00  1.00800000E+00  1.60000000E+01  1.00800000E+00  1.00800000E+00
  1.60000000E+01  1.00800000E+00  1.00800000E+00  1.60000000E+01  1.00800000E+00
  1.00800000E+00  1.60000000E+01  1.00800000E+00  1.00800000E+00  1.60000000E+01
  1.00800000E+00  1.00800000E+00  1.60000000E+01  1.00800000E+00  1.00800000E+00
  1.60000000E+01  1.00800000E+00  1.00800000E+00  1.60000000E+01  1.00800000E+00
  1.00800000E+00  1.60000000E+01  1.00800000E+00  1.00800000E+00  1.60000000E+01
  1.00800000E+00  1.00800000E+00  1.60000000E+01  1.00800000E+00  1.00800000E+00
  1.60000000E+01  1.00800000E+00  1.00800000E+00  1.60000000E+01  1.00800000E+00
  1.00800000E+00  1.60000000E+01  1.00800000E+00  1.00800000E+00  1.60000000E+01
  1.00800000E+00  1.00800000E+00  1.60000000E+01  1.00800000E+00  1.00800000E+00
  1.60000000E+01  1.00800000E+00  1.00800000E+00  1.60000000E+01  1.00800000E+00
  1.00800000E+00  1.60000000E+01  1.00800000E+00  1.00800000E+00  1.60000000E+01
  1.00800000E+00  1.00800000E+00  1.60000000E+01  1.00800000E+00  1.00800000E+00
  1.60000000E+01  1.00800000E+00  1.00800000E+00  1.60000000E+01  1.00800000E+00
  1.00800000E+00  1.60000000E+01  1.00800000E+00  1.00800000E+00  1.60000000E+01
  1.00800000E+00  1.00800000E+00  1.60000000E+01  1.00800000E+00  1.00800000E+00
  1.60000000E+01  1.00800000E+00  1.00800000E+00  1.60000000E+01  1.00800000E+00
  1.00800000E+00  1.60000000E+01  1.00800000E+00  1.00800000E+00  1.60000000E+01
  1.00800000E+00  1.00800000E+00  1.60000000E+01  1.00800000E+00  1.00800000E+00
  1.60000000E+01  1.00800000E+00  1.00800000E+00  1.60000000E+01  1.00800000E+00
  1.00800000E+00  1.60000000E+01  1.00800000E+00  1.00800000E+00  1.60000000E+01
  1.00800000E+00  1.00800000E+00  1.60000000E+01  1.00800000E+00  1.00800000E+00
  1.60000000E+01  1.00800000E+00  1.00800000E+00  1.60000000E+01  1.00800000E+00
  1.00800000E+00  1.60000000E+01  1.00800000E+00  1.00800000E+00  1.60000000E+01
  1.00800000E+00  1.00800000E+00  1.60000000E+01  1.00800000E+00  1.00800000E+00
  1.60000000E+01  1.00800000E+00  1.00800000E+00  1.60000000E+01  1.00800000E+00
  1.00800000E+00  1.60000000E+01  1.00800000E+00  1.00800000E+00  1.60000000E+01
  1.00800000E+00  1.00800000E+00  1.60000000E+01  1.00800000E+00  1.00800000E+00
  1.60000000E+01  1.00800000E+00  1.00800000E+00  1.60000000E+01  1.00800000E+00
  1.00800000E+00  1.60000000E+01  1.00800000E+00  1.00800000E+00  1.60000000E+01
  1.00800000E+00  1.00800000E+00  1.60000000E+01  1.00800000E+00  1.00800000E+00
  1.60000000E+01  1.00800000E+00  1.00800000E+00  1.60000000E+01  1.00800000E+00
  1.00800000E+00  1.60000000E+01  1.00800000E+00  1.00800000E+00  1.60000000E+01
  1.00800000E+00  1.00800000E+00  1.60000000E+01  1.00800000E+00  1.00800000E+00
  1.60000000E+01  1.00800000E+00  1.00800000E+00  1.60000000E+01  1.00800000E+00
  1.00800000E+00  1.60000000E+01  1.00800000E+00  1.00800000E+00  1.60000000E+01
  1.00800000E+00  1.00800000E+00  1.60000000E+01  1.00800000E+00  1.00800000E+00
  1.60000000E+01  1.00800000E+00  1.00800000E+00  1.60000000E+01  1.00800000E+00
  1.00800000E+00  1.60000000E+01  1.00800000E+00  1.00800000E+00  1.60000000E+01
  1.00800000E+00  1.00800000E+00  1.60000000E+01  1.00800000E+00  1.00800000E+00
  1.60000000E+01  1.00800000E+00  1.00800000E+00  1.60000000E+01  1.00800000E+00
  1.00800000E+00  1.60000000E+01  1.00800000E+00  1.00800000E+00  1.60000000E+01
  1.00800000E+00  1.00800000E+00  1.60000000E+01  1.00800000E+00  1.00800000E+00
  1.60000000E+01  1.00800000E+00  1.00800000E+00  1.60000000E+01  1.00800000E+00
  1.00800000E+00  1.60000000E+01  1.00800000E+00  1.00800000E+00  1.60000000E+01
  1.00800000E+00  1.00800000E+00  1.60000000E+01  1.00800000E+00  1.00800000E+00
  1.60000000E+01  1.00800000E+00  1.00800000E+00  1.60000000E+01  1.00800000E+00
  1.00800000E+00  1.60000000E+01  1.00800000E+00  1.00800000E+00  1.60000000E+01
  1.00800000E+00  1.00800000E+00  1.60000000E+01  1.00800000E+00  1.00800000E+00
  1.60000000E+01  1.00800000E+00  1.00800000E+00  1.60000000E+01  1.00800000E+00
  1.00800000E+00  1.60000000E+01  1.00800000E+00  1.00800000E+00  1.60000000E+01
  1.00800000E+00  1.00800000E+00  1.60000000E+01  1.00800000E+00  1.00800000E+00
  1.60000000E+01  1.00800000E+00  1.00800000E+00  1.60000000E+01  1.00800000E+00
  1.00800000E+00  1.60000000E+01  1.00800000E+00  1.00800000E+00  1.60000000E+01
  1.00800000E+00  1.00800000E+00  1.60000000E+01  1.00800000E+00  1.00800000E+00
  1.60000000E+01  1.00800000E+00  1.00800000E+00  1.60000000E+01  1.00800000E+00
  1.00800000E+00  1.60000000E+01  1.00800000E+00  1.00800000E+00  1.60000000E+01
  1.00800000E+00  1.00800000E+00  1.60000000E+01  1.00800000E+00  1.00800000E+00
  1.60000000E+01  1.00800000E+00  1.00800000E+00  1.60000000E+01  1.00800000E+00
  1.00800000E+00  1.60000000E+01  1.00800000E+00  1.00800000E+00  1.60000000E+01
  1.00800000E+00  1.00800000E+00  1.60000000E+01  1.00800000E+00  1.00800000E+00
  1.60000000E+01  1.00800000E+00  1.00800000E+00  1.60000000E+01  1.00800000E+00
  1.00800000E+00  1.60000000E+01  1.00800000E+00  1.00800000E+00  1.60000000E+01
  1.00800000E+00  1.00800000E+00  1.60000000E+01  1.00800000E+00  1.00800000E+00
  1.60000000E+01  1.00800000E+00  1.00800000E+00  1.60000000E+01  1.00800000E+00
  1.00800000E+00  1.60000000E+01  1.00800000E+00  1.00800000E+00  1.60000000E+01
  1.00800000E+00  1.00800000E+00  1.60000000E+01  1.00800000E+00  1.00800000E+00
  1.60000000E+01  1.00800000E+00  1.00800000E+00  1.60000000E+01  1.00800000E+00
  1.00800000E+00  1.60000000E+01  1.00800000E+00  1.00800000E+00  1.60000000E+01
  1.00800000E+00  1.00800000E+00  1.60000000E+01  1.00800000E+00  1.00800000E+00
  1.60000000E+01  1.00800000E+00  1.00800000E+00  1.60000000E+01  1.00800000E+00
  1.00800000E+00  1.60000000E+01  1.00800000E+00  1.00800000E+00  1.60000000E+01
  1.00800000E+00  1.00800000E+00  1.60000000E+01  1.00800000E+00  1.00800000E+00
  1.60000000E+01  1.00800000E+00  1.00800000E+00  1.60000000E+01  1.00800000E+00
  1.00800000E+00  1.60000000E+01  1.00800000E+00  1.00800000E+00  1.60000000E+01
  1.00800000E+00  1.00800000E+00  1.60000000E+01  1.00800000E+00  1.00800000E+00
  1.60000000E+01  1.00800000E+00  1.00800000E+00  1.60000000E+01  1.00800000E+00
  1.00800000E+00  1.60000000E+01  1.00800000E+00  1.00800000E+00  1.60000000E+01
  1.00800000E+00  1.00800000E+00  1.60000000E+01  1.00800000E+00  1.00800000E+00
  1.60000000E+01  1.00800000E+00  1.00800000E+00  1.60000000E+01  1.00800000E+00
  1.00800000E+00  1.60000000E+01  1.00800000E+00  1.00800000E+00  1.60000000E+01
  1.00800000E+00  1.00800000E+00  1.60000000E+01  1.00800000E+00  1.00800000E+00
  1.60000000E+01  1.00800000E+00  1.00800000E+00  1.60000000E+01  1.00800000E+00
  1.00800000E+00  1.60000000E+01  1.00800000E+00  1.00800000E+00  1.60000000E+01
  1.00800000E+00  1.00800000E+00  1.60000000E+01  1.00800000E+00  1.00800000E+00
  1.60000000E+01  1.00800000E+00  1.00800000E+00  1.60000000E+01  1.00800000E+00
  1.00800000E+00  1.60000000E+01  1.00800000E+00  1.00800000E+00  1.60000000E+01
  1.00800000E+00  1.00800000E+00  1.60000000E+01  1.00800000E+00  1.00800000E+00
  1.60000000E+01  1.00800000E+00  1.00800000E+00  1.60000000E+01  1.00800000E+00
  1.00800000E+00  1.60000000E+01  1.00800000E+00  1.00800000E+00  1.60000000E+01
  1.00800000E+00  1.00800000E+00  1.60000000E+01  1.00800000E+00  1.00800000E+00
  1.60000000E+01  1.00800000E+00  1.00800000E+00  1.60000000E+01  1.00800000E+00
  1.00800000E+00  1.60000000E+01  1.00800000E+00  1.00800000E+00  1.60000000E+01
  1.00800000E+00  1.00800000E+00  1.60000000E+01  1.00800000E+00  1.00800000E+00
  1.60000000E+01  1.00800000E+00  1.00800000E+00  1.60000000E+01  1.00800000E+00
  1.00800000E+00  1.60000000E+01  1.00800000E+00  1.00800000E+00  1.60000000E+01
  1.00800000E+00  1.00800000E+00  1.60000000E+01  1.00800000E+00  1.00800000E+00
  1.60000000E+01  1.00800000E+00  1.00800000E+00  1.60000000E+01  1.00800000E+00
  1.00800000E+00  1.60000000E+01  1.00800000E+00  1.00800000E+00  1.60000000E+01
  1.00800000E+00  1.00800000E+00  1.60000000E+01  1.00800000E+00  1.00800000E+00
  1.60000000E+01  1.00800000E+00  1.00800000E+00  1.60000000E+01  1.00800000E+00
  1.00800000E+00  1.60000000E+01  1.00800000E+00  1.00800000E+00  1.60000000E+01
  1.00800000E+00  1.00800000E+00  1.60000000E+01  1.00800000E+00  1.00800000E+00
  1.60000000E+01  1.00800000E+00  1.00800000E+00  1.60000000E+01  1.00800000E+00
  1.00800000E+00  1.60000000E+01  1.00800000E+00  1.00800000E+00  1.60000000E+01
  1.00800000E+00  1.00800000E+00  1.60000000E+01  1.00800000E+00  1.00800000E+00
  1.60000000E+01  1.00800000E+00  1.00800000E+00  1.60000000E+01  1.00800000E+00
  1.00800000E+00  1.60000000E+01  1.00800000E+00  1.00800000E+00  1.60000000E+01
  1.00800000E+00  1.00800000E+00  1.60000000E+01  1.00800000E+00  1.00800000E+00
  1.60000000E+01  1.00800000E+00  1.00800000E+00  1.60000000E+01  1.00800000E+00
  1.00800000E+00  1.60000000E+01  1.00800000E+00  1.00800000E+00  1.60000000E+01
  1.00800000E+00  1.00800000E+00  1.60000000E+01  1.00800000E+00  1.00800000E+00
  1.60000000E+01  1.00800000E+00  1.00800000E+00  1.60000000E+01  1.00800000E+00
  1.00800000E+00  1.60000000E+01  1.00800000E+00  1.00800000E+00  1.60000000E+01
  1.00800000E+00  1.00800000E+00  1.60000000E+01  1.00800000E+00  1.00800000E+00
  1.60000000E+01  1.00800000E+00  1.00800000E+00  1.60000000E+01  1.00800000E+00
  1.00800000E+00  1.60000000E+01  1.00800000E+00  1.00800000E+00  1.60000000E+01
  1.00800000E+00  1.00800000E+00  1.60000000E+01  1.00800000E+00  1.00800000E+00
  1.60000000E+01  1.00800000E+00  1.00800000E+00  1.60000000E+01  1.00800000E+00
  1.00800000E+00  1.60000000E+01  1.00800000E+00  1.00800000E+00  1.60000000E+01
  1.00800000E+00  1.00800000E+00  1.60000000E+01  1.00800000E+00  1.00800000E+00
  1.60000000E+01  1.00800000E+00  1.00800000E+00  1.60000000E+01  1.00800000E+00
  1.00800000E+00  1.60000000E+01  1.00800000E+00  1.00800000E+00  1.60000000E+01
  1.00800000E+00  1.00800000E+00  1.60000000E+01  1.00800000E+00  1.00800000E+00
  1.60000000E+01  1.00800000E+00  1.00800000E+00  1.60000000E+01  1.00800000E+00
  1.00800000E+00  1.60000000E+01  1.00800000E+00  1.00800000E+00  1.60000000E+01
  1.00800000E+00  1.00800000E+00  1.60000000E+01  1.00800000E+00  1.00800000E+00
  1.60000000E+01  1.00800000E+00  1.00800000E+00  1.60000000E+01  1.00800000E+00
  1.00800000E+00  1.60000000E+01  1.00800000E+00  1.00800000E+00  1.60000000E+01
  1.00800000E+00  1.00800000E+00  1.60000000E+01  1.00800000E+00  1.00800000E+00
  1.60000000E+01  1.00800000E+00  1.00800000E+00  1.60000000E+01  1.00800000E+00
  1.00800000E+00  1.60000000E+01  1.00800000E+00  1.00800000E+00  1.60000000E+01
  1.00800000E+00  1.00800000E+00  1.60000000E+01  1.00800000E+00  1.00800000E+00
  1.60000000E+01  1.00800000E+00  1.00800000E+00  1.60000000E+01  1.00800000E+00
  1.00800000E+00  1.60000000E+01  1.00800000E+00  1.00800000E+00  1.60000000E+01
  1.00800000E+00  1.00800000E+00  1.60000000E+01  1.00800000E+00  1.00800000E+00
  1.60000000E+01  1.00800000E+00  1.00800000E+00  1.60000000E+01  1.00800000E+00
  1.00800000E+00  1.60000000E+01  1.00800000E+00  1.00800000E+00  1.60000000E+01
  1.00800000E+00  1.00800000E+00  1.60000000E+01  1.00800000E+00  1.00800000E+00
  1.60000000E+01  1.00800000E+00  1.00800000E+00  1.60000000E+01  1.00800000E+00
  1.00800000E+00  1.60000000E+01  1.00800000E+00  1.00800000E+00  1.60000000E+01
  1.00800000E+00  1.00800000E+00  1.60000000E+01  1.00800000E+00  1.00800000E+00
  1.60000000E+01  1.00800000E+00  1.00800000E+00  1.60000000E+01  1.00800000E+00
  1.00800000E+00  1.60000000E+01  1.00800000E+00  1.00800000E+00  1.60000000E+01
  1.00800000E+00  1.00800000E+00  1.60000000E+01  1.00800000E+00  1.00800000E+00
  1.60000000E+01  1.00800000E+00  1.00800000E+00  1.60000000E+01  1.00800000E+00
  1.00800000E+00  1.60000000E+01  1.00800000E+00  1.00800000E+00  1.60000000E+01
  1.00800000E+00  1.00800000E+00  1.60000000E+01  1.00800000E+00  1.00800000E+00
  1.60000000E+01  1.00800000E+00  1.00800000E+00  1.60000000E+01  1.00800000E+00
  1.00800000E+00  1.60000000E+01  1.00800000E+00  1.00800000E+00  1.60000000E+01
  1.00800000E+00  1.00800000E+00  1.60000000E+01  1.00800000E+00  1.00800000E+00
  1.60000000E+01  1.00800000E+00  1.00800000E+00  1.60000000E+01  1.00800000E+00
  1.00800000E+00  1.60000000E+01  1.00800000E+00  1.00800000E+00  1.60000000E+01
  1.00800000E+00  1.00800000E+00  1.60000000E+01  1.00800000E+00  1.00800000E+00
  1.60000000E+01  1.00800000E+00  1.00800000E+00  1.60000000E+01  1.00800000E+00
  1.00800000E+00  1.60000000E+01  1.00800000E+00  1.00800000E+00  1.60000000E+01
  1.00800000E+00  1.00800000E+00  1.60000000E+01  1.00800000E+00  1.00800000E+00
  1.60000000E+01  1.00800000E+00  1.00800000E+00  1.60000000E+01  1.00800000E+00
  1.00800000E+00  1.60000000E+01  1.00800000E+00  1.00800000E+00  1.60000000E+01
  1.00800000E+00  1.00800000E+00  1.60000000E+01  1.00800000E+00  1.00800000E+00
  1.60000000E+01  1.00800000E+00  1.00800000E+00  1.60000000E+01  1.00800000E+00
  1.00800000E+00  1.60000000E+01  1.00800000E+00  1.00800000E+00  1.60000000E+01
  1.00800000E+00  1.00800000E+00  1.60000000E+01  1.00800000E+00  1.00800000E+00
  1.60000000E+01  1.00800000E+00  1.00800000E+00  1.60000000E+01  1.00800000E+00
  1.00800000E+00  1.60000000E+01  1.00800000E+00  1.00800000E+00  1.60000000E+01
  1.00800000E+00  1.00800000E+00  1.60000000E+01  1.00800000E+00  1.00800000E+00
  1.60000000E+01  1.00800000E+00  1.00800000E+00  1.60000000E+01  1.00800000E+00
  1.00800000E+00  1.60000000E+01  1.00800000E+00  1.00800000E+00  1.60000000E+01
  1.00800000E+00  1.00800000E+00  1.60000000E+01  1.00800000E+00  1.00800000E+00
  1.60000000E+01  1.00800000E+00  1.00800000E+00  1.60000000E+01  1.00800000E+00
  1.00800000E+00  1.60000000E+01  1.00800000E+00  1.00800000E+00  1.60000000E+01
  1.00800000E+00  1.00800000E+00  1.60000000E+01  1.00800000E+00  1.00800000E+00
  1.60000000E+01  1.00800000E+00  1.00800000E+00  1.60000000E+01  1.00800000E+00
  1.00800000E+00  1.60000000E+01  1.00800000E+00  1.00800000E+00  1.60000000E+01
  1.00800000E+00  1.00800000E+00  1.60000000E+01  1.00800000E+00  1.00800000E+00
  1.60000000E+01  1.00800000E+00  1.00800000E+00  1.60000000E+01  1.00800000E+00
  1.00800000E+00  1.60000000E+01  1.00800000E+00  1.00800000E+00  1.60000000E+01
  1.00800000E+00  1.00800000E+00  1.60000000E+01  1.00800000E+00  1.00800000E+00
  1.60000000E+01  1.00800000E+00  1.00800000E+00  1.60000000E+01  1.00800000E+00
  1.00800000E+00  1.60000000E+01  1.00800000E+00  1.00800000E+00  1.60000000E+01
  1.00800000E+00  1.00800000E+00  1.60000000E+01  1.00800000E+00  1.00800000E+00
  1.60000000E+01  1.00800000E+00  1.00800000E+00  1.60000000E+01  1.00800000E+00
  1.00800000E+00  1.60000000E+01  1.00800000E+00  1.00800000E+00  1.60000000E+01
  1.00800000E+00  1.00800000E+00  1.60000000E+01  1.00800000E+00  1.00800000E+00
  1.60000000E+01  1.00800000E+00  1.00800000E+00  1.60000000E+01  1.00800000E+00
  1.00800000E+00  1.60000000E+01  1.00800000E+00  1.00800000E+00  1.60000000E+01
  1.00800000E+00  1.00800000E+00  1.60000000E+01  1.00800000E+00  1.00800000E+00
  1.60000000E+01  1.00800000E+00  1.00800000E+00  1.60000000E+01  1.00800000E+00
  1.00800000E+00  1.60000000E+01  1.00800000E+00  1.00800000E+00  1.60000000E+01
  1.00800000E+00  1.00800000E+00  1.60000000E+01  1.00800000E+00  1.00800000E+00
  1.60000000E+01  1.00800000E+00  1.00800000E+00  1.60000000E+01  1.00800000E+00
  1.00800000E+00  1.60000000E+01  1.00800000E+00  1.00800000E+00  1.60000000E+01
  1.00800000E+00  1.00800000E+00  1.60000000E+01  1.00800000E+00  1.00800000E+00
  1.60000000E+01  1.00800000E+00  1.00800000E+00  1.60000000E+01  1.00800000E+00
  1.00800000E+00  1.60000000E+01  1.00800000E+00  1.00800000E+00  1.60000000E+01
  1.00800000E+00  1.00800000E+00  1.60000000E+01  1.00800000E+00  1.00800000E+00
  1.60000000E+01  1.00800000E+00  1.00800000E+00  1.60000000E+01  1.00800000E+00
  1.00800000E+00  1.60000000E+01  1.00800000E+00  1.00800000E+00  1.60000000E+01
  1.00800000E+00  1.00800000E+00  1.60000000E+01  1.00800000E+00  1.00800000E+00
  1.60000000E+01  1.00800000E+00  1.00800000E+00  1.60000000E+01  1.00800000E+00
  1.00800000E+00  1.60000000E+01  1.00800000E+00  1.00800000E+00  1.60000000E+01
  1.00800000E+00  1.00800000E+00  1.60000000E+01  1.00800000E+00  1.00800000E+00
  1.60000000E+01  1.00800000E+00  1.00800000E+00  1.60000000E+01  1.00800000E+00
  1.00800000E+00  1.60000000E+01  1.00800000E+00  1.00800000E+00  1.60000000E+01
  1.00800000E+00  1.00800000E+00  1.60000000E+01  1.00800000E+00  1.00800000E+00
  1.60000000E+01  1.00800000E+00  1.00800000E+00  1.60000000E+01  1.00800000E+00
  1.00800000E+00  1.60000000E+01  1.00800000E+00  1.00800000E+00  1.60000000E+01
  1.00800000E+00  1.00800000E+00  1.60000000E+01  1.00800000E+00  1.00800000E+00
  1.60000000E+01  1.00800000E+00  1.00800000E+00  1.60000000E+01  1.00800000E+00
  1.00800000E+00  1.60000000E+01  1.00800000E+00  1.00800000E+00  1.60000000E+01
  1.00800000E+00  1.00800000E+00  1.60000000E+01  1.00800000E+00  1.00800000E+00
  1.60000000E+01  1.00800000E+00  1.00800000E+00  1.60000000E+01  1.00800000E+00
  1.00800000E+00  1.60000000E+01  1.00800000E+00  1.00800000E+00  1.60000000E+01
  1.00800000E+00  1.00800000E+00  1.60000000E+01  1.00800000E+00  1.00800000E+00
  1.60000000E+01  1.00800000E+00  1.00800000E+00  1.60000000E+01  1.00800000E+00
  1.00800000E+00  1.60000000E+01  1.00800000E+00  1.00800000E+00  1.60000000E+01
  1.00800000E+00  1.00800000E+00  1.60000000E+01  1.00800000E+00  1.00800000E+00
  1.60000000E+01  1.00800000E+00  1.00800000E+00  1.60000000E+01  1.00800000E+00
  1.00800000E+00  1.60000000E+01  1.00800000E+00  1.00800000E+00  1.60000000E+01
  1.00800000E+00  1.00800000E+00  1.60000000E+01  1.00800000E+00  1.00800000E+00
  1.60000000E+01  1.00800000E+00  1.00800000E+00  1.60000000E+01  1.00800000E+00
  1.00800000E+00  1.60000000E+01  1.00800000E+00  1.00800000E+00  1.60000000E+01
  1.00800000E+00  1.00800000E+00  1.60000000E+01  1.00800000E+00  1.00800000E+00
  1.60000000E+01  1.00800000E+00  1.00800000E+00  1.60000000E+01  1.00800000E+00
  1.00800000E+00  1.60000000E+01  1.00800000E+00  1.00800000E+00  1.60000000E+01
  1.00800000E+00  1.00800000E+00  1.60000000E+01  1.00800000E+00  1.00800000E+00
  1.60000000E+01  1.00800000E+00  1.00800000E+00  1.60000000E+01  1.00800000E+00
  1.00800000E+00  1.60000000E+01  1.00800000E+00  1.00800000E+00  1.60000000E+01
  1.00800000E+00  1.00800000E+00  1.60000000E+01  1.00800000E+00  1.00800000E+00
  1.60000000E+01  1.00800000E+00  1.00800000E+00  1.60000000E+01  1.00800000E+00
  1.00800000E+00  1.60000000E+01  1.00800000E+00  1.00800000E+00  1.60000000E+01
  1.00800000E+00  1.00800000E+00  1.60000000E+01  1.00800000E+00  1.00800000E+00
  1.60000000E+01  1.00800000E+00  1.00800000E+00  1.60000000E+01  1.00800000E+00
  1.00800000E+00  1.60000000E+01  1.00800000E+00  1.00800000E+00  1.60000000E+01
  1.00800000E+00  1.00800000E+00  1.60000000E+01  1.00800000E+00  1.00800000E+00
  1.60000000E+01  1.00800000E+00  1.00800000E+00  1.60000000E+01  1.00800000E+00
  1.00800000E+00  1.60000000E+01  1.00800000E+00  1.00800000E+00  1.60000000E+01
  1.00800000E+00  1.00800000E+00  1.60000000E+01  1.00800000E+00  1.00800000E+00
  1.60000000E+01  1.00800000E+00  1.00800000E+00  1.60000000E+01  1.00800000E+00
  1.00800000E+00  1.60000000E+01  1.00800000E+00  1.00800000E+00  1.60000000E+01
  1.00800000E+00  1.00800000E+00  1.60000000E+01  1.00800000E+00  1.00800000E+00
  1.60000000E+01  1.00800000E+00  1.00800000E+00  1.60000000E+01  1.00800000E+00
  1.00800000E+00  1.60000000E+01  1.00800000E+00  1.00800000E+00  1.60000000E+01
  1.00800000E+00  1.00800000E+00  1.60000000E+01  1.00800000E+00  1.00800000E+00
  1.60000000E+01  1.00800000E+00  1.00800000E+00  1.60000000E+01  1.00800000E+00
  1.00800000E+00  1.60000000E+01  1.00800000E+00  1.00800000E+00  1.60000000E+01
  1.00800000E+00  1.00800000E+00  1.60000000E+01  1.00800000E+00  1.00800000E+00
  1.60000000E+01  1.00800000E+00  1.00800000E+00  1.60000000E+01  1.00800000E+00
  1.00800000E+00  1.60000000E+01  1.00800000E+00  1.00800000E+00  1.60000000E+01
  1.00800000E+00  1.00800000E+00  1.60000000E+01  1.00800000E+00  1.00800000E+00
  1.60000000E+01  1.00800000E+00  1.00800000E+00  1.60000000E+01  1.00800000E+00
  1.00800000E+00  1.60000000E+01  1.00800000E+00  1.00800000E+00  1.60000000E+01
  1.00800000E+00  1.00800000E+00  1.60000000E+01  1.00800000E+00  1.00800000E+00
  1.60000000E+01  1.00800000E+00  1.00800000E+00  1.60000000E+01  1.00800000E+00
  1.00800000E+00  1.60000000E+01  1.00800000E+00  1.00800000E+00  1.60000000E+01
  1.00800000E+00  1.00800000E+00  1.60000000E+01  1.00800000E+00  1.00800000E+00
  1.60000000E+01  1.00800000E+00  1.00800000E+00  1.60000000E+01  1.00800000E+00
  1.00800000E+00  1.60000000E+01  1.00800000E+00  1.00800000E+00  1.60000000E+01
  1.00800000E+00  1.00800000E+00  1.60000000E+01  1.00800000E+00  1.00800000E+00
  1.60000000E+01  1.00800000E+00  1.00800000E+00  1.60000000E+01  1.00800000E+00
  1.00800000E+00  1.60000000E+01  1.00800000E+00  1.00800000E+00  1.60000000E+01
  1.00800000E+00  1.00800000E+00  1.60000000E+01  1.00800000E+00  1.00800000E+00
  1.60000000E+01  1.00800000E+00  1.00800000E+00  1.60000000E+01  1.00800000E+00
  1.00800000E+00  1.60000000E+01  1.00800000E+00  1.00800000E+00  1.60000000E+01
  1.00800000E+00  1.00800000E+00  1.60000000E+01  1.00800000E+00  1.00800000E+00
  1.60000000E+01  1.00800000E+00  1.00800000E+00  1.60000000E+01  1.00800000E+00
  1.00800000E+00  1.60000000E+01  1.00800000E+00  1.00800000E+00  1.60000000E+01
  1.00800000E+00  1.00800000E+00  1.60000000E+01  1.00800000E+00  1.00800000E+00
  1.60000000E+01  1.00800000E+00  1.00800000E+00  1.60000000E+01  1.00800000E+00
  1.00800000E+00  1.60000000E+01  1.00800000E+00  1.00800000E+00  1.60000000E+01
  1.00800000E+00  1.00800000E+00  1.60000000E+01  1.00800000E+00  1.00800000E+00
  1.60000000E+01  1.00800000E+00  1.00800000E+00  1.60000000E+01  1.00800000E+00
  1.00800000E+00  1.60000000E+01  1.00800000E+00  1.00800000E+00  1.60000000E+01
  1.00800000E+00  1.00800000E+00  1.60000000E+01  1.00800000E+00  1.00800000E+00
  1.60000000E+01  1.00800000E+00  1.00800000E+00  1.60000000E+01  1.00800000E+00
  1.00800000E+00  1.60000000E+01  1.00800000E+00  1.00800000E+00  1.60000000E+01
  1.00800000E+00  1.00800000E+00  1.60000000E+01  1.00800000E+00  1.00800000E+00
  1.60000000E+01  1.00800000E+00  1.00800000E+00  1.60000000E+01  1.00800000E+00
  1.00800000E+00  1.60000000E+01  1.00800000E+00  1.00800000E+00  1.60000000E+01
  1.00800000E+00  1.00800000E+00  1.60000000E+01  1.00800000E+00  1.00800000E+00
  1.60000000E+01  1.00800000E+00  1.00800000E+00  1.60000000E+01  1.00800000E+00
  1.00800000E+00  1.60000000E+01  1.00800000E+00  1.00800000E+00  1.60000000E+01
  1.00800000E+00  1.00800000E+00  1.60000000E+01  1.00800000E+00  1.00800000E+00
  1.60000000E+01  1.00800000E+00  1.00800000E+00  1.60000000E+01  1.00800000E+00
  1.00800000E+00  1.60000000E+01  1.00800000E+00  1.00800000E+00  1.60000000E+01
  1.00800000E+00  1.00800000E+00  1.60000000E+01  1.00800000E+00  1.00800000E+00
  1.60000000E+01  1.00800000E+00  1.00800000E+00  1.60000000E+01  1.00800000E+00
  1.00800000E+00  1.60000000E+01  1.00800000E+00  1.00800000E+00  1.60000000E+01
  1.00800000E+00  1.00800000E+00  1.60000000E+01  1.00800000E+00  1.00800000E+00
  1.60000000E+01  1.00800000E+00  1.00800000E+00  1.60000000E+01  1.00800000E+00
  1.00800000E+00  1.60000000E+01  1.00800000E+00  1.00800000E+00  1.60000000E+01
  1.00800000E+00  1.00800000E+00  1.60000000E+01  1.00800000E+00  1.00800000E+00
  1.60000000E+01  1.00800000E+00  1.00800000E+00  1.60000000E+01  1.00800000E+00
  1.00800000E+00  1.60000000E+01  1.00800000E+00  1.00800000E+00  1.60000000E+01
  1.00800000E+00  1.00800000E+00  1.60000000E+01  1.00800000E+00  1.00800000E+00
  1.60000000E+01  1.00800000E+00  1.00800000E+00  1.60000000E+01  1.00800000E+00
  1.00800000E+00  1.60000000E+01  1.00800000E+00  1.00800000E+00  1.60000000E+01
  1.00800000E+00  1.00800000E+00  1.60000000E+01  1.00800000E+00  1.00800000E+00
  1.60000000E+01  1.00800000E+00  1.00800000E+00  1.60000000E+01  1.00800000E+00
  1.00800000E+00  1.60000000E+01  1.00800000E+00  1.00800000E+00  1.60000000E+01
  1.00800000E+00  1.00800000E+00  1.60000000E+01  1.00800000E+00  1.00800000E+00
  1.60000000E+01  1.00800000E+00  1.00800000E+00  1.60000000E+01  1.00800000E+00
  1.00800000E+00  1.60000000E+01  1.00800000E+00  1.00800000E+00  1.60000000E+01
  1.00800000E+00  1.00800000E+00  1.60000000E+01  1.00800000E+00  1.00800000E+00
  1.60000000E+01  1.00800000E+00  1.00800000E+00  1.60000000E+01  1.00800000E+00
  1.00800000E+00  1.60000000E+01  1.00800000E+00  1.00800000E+00  1.60000000E+01
  1.00800000E+00  1.00800000E+00  1.60000000E+01  1.00800000E+00  1.00800000E+00
  1.60000000E+01  1.00800000E+00  1.00800000E+00  1.60000000E+01  1.00800000E+00
  1.00800000E+00  1.60000000E+01  1.00800000E+00  1.00800000E+00  1.60000000E+01
  1.00800000E+00  1.00800000E+00  1.60000000E+01  1.00800000E+00  1.00800000E+00
  1.60000000E+01  1.00800000E+00  1.00800000E+00  1.60000000E+01  1.00800000E+00
  1.00800000E+00  1.60000000E+01  1.00800000E+00  1.00800000E+00  1.60000000E+01
  1.00800000E+00  1.00800000E+00  1.60000000E+01  1.00800000E+00  1.00800000E+00
  1.60000000E+01  1.00800000E+00  1.00800000E+00  1.60000000E+01  1.00800000E+00
  1.00800000E+00  1.60000000E+01  1.00800000E+00  1.00800000E+00  1.60000000E+01
  1.00800000E+00  1.00800000E+00  1.60000000E+01  1.00800000E+00  1.00800000E+00
  1.60000000E+01  1.00800000E+00  1.00800000E+00  1.60000000E+01  1.00800000E+00
  1.00800000E+00  1.60000000E+01  1.00800000E+00  1.00800000E+00  1.60000000E+01
  1.00800000E+00  1.00800000E+00  1.60000000E+01  1.00800000E+00  1.00800000E+00
  1.60000000E+01  1.00800000E+00  1.00800000E+00  1.60000000E+01  1.00800000E+00
  1.00800000E+00  1.60000000E+01  1.00800000E+00  1.00800000E+00  1.60000000E+01
  1.00800000E+00  1.00800000E+00  1.60000000E+01  1.00800000E+00  1.00800000E+00
  1.60000000E+01  1.00800000E+00  1.00800000E+00  1.60000000E+01  1.00800000E+00
  1.00800000E+00  1.60000000E+01  1.00800000E+00  1.00800000E+00  1.60000000E+01
  1.00800000E+00  1.00800000E+00  1.60000000E+01  1.00800000E+00  1.00800000E+00
  1.60000000E+01  1.00800000E+00  1.00800000E+00  1.60000000E+01  1.00800000E+00
  1.00800000E+00  1.60000000E+01  1.00800000E+00  1.00800000E+00  1.60000000E+01
  1.00800000E+00  1.00800000E+00  1.60000000E+01  1.00800000E+00  1.00800000E+00
  1.60000000E+01  1.00800000E+00  1.00800000E+00  1.60000000E+01  1.00800000E+00
  1.00800000E+00  1.60000000E+01  1.00800000E+00  1.00800000E+00  1.60000000E+01
  1.00800000E+00  1.00800000E+00  1.60000000E+01  1.00800000E+00  1.00800000E+00
  1.60000000E+01  1.00800000E+00  1.00800000E+00  1.60000000E+01  1.00800000E+00
  1.00800000E+00  1.60000000E+01  1.00800000E+00  1.00800000E+00  1.60000000E+01
  1.00800000E+00  1.00800000E+00  1.60000000E+01  1.00800000E+00  1.00800000E+00
  1.60000000E+01  1.00800000E+00  1.00800000E+00  1.60000000E+01  1.00800000E+00
  1.00800000E+00  1.60000000E+01  1.00800000E+00  1.00800000E+00  1.60000000E+01
  1.00800000E+00  1.00800000E+00  1.60000000E+01  1.00800000E+00  1.00800000E+00
  1.60000000E+01  1.00800000E+00  1.00800000E+00  1.60000000E+01  1.00800000E+00
  1.00800000E+00  1.60000000E+01  1.00800000E+00  1.00800000E+00  1.60000000E+01
  1.00800000E+00  1.00800000E+00  1.60000000E+01  1.00800000E+00  1.00800000E+00
  1.60000000E+01  1.00800000E+00  1.00800000E+00  1.60000000E+01  1.00800000E+00
  1.00800000E+00  1.60000000E+01  1.00800000E+00  1.00800000E+00  1.60000000E+01
  1.00800000E+00  1.00800000E+00  1.60000000E+01  1.00800000E+00  1.00800000E+00
  1.60000000E+01  1.00800000E+00  1.00800000E+00  1.60000000E+01  1.00800000E+00
  1.00800000E+00  1.60000000E+01  1.00800000E+00  1.00800000E+00  1.60000000E+01
  1.00800000E+00  1.00800000E+00  1.60000000E+01  1.00800000E+00  1.00800000E+00
  1.60000000E+01  1.00800000E+00  1.00800000E+00  1.60000000E+01  1.00800000E+00
  1.00800000E+00  1.60000000E+01  1.00800000E+00  1.00800000E+00  1.60000000E+01
  1.00800000E+00  1.00800000E+00  1.60000000E+01  1.00800000E+00  1.00800000E+00
  1.60000000E+01  1.00800000E+00  1.00800000E+00  1.60000000E+01  1.00800000E+00
  1.00800000E+00  1.60000000E+01  1.00800000E+00  1.00800000E+00  1.60000000E+01
  1.00800000E+00  1.00800000E+00  1.60000000E+01  1.00800000E+00  1.00800000E+00
  1.60000000E+01  1.00800000E+00  1.00800000E+00  1.60000000E+01  1.00800000E+00
  1.00800000E+00  1.60000000E+01  1.00800000E+00  1.00800000E+00  1.60000000E+01
  1.00800000E+00  1.00800000E+00  1.60000000E+01  1.00800000E+00  1.00800000E+00
  1.60000000E+01  1.00800000E+00  1.00800000E+00  1.60000000E+01  1.00800000E+00
  1.00800000E+00  1.60000000E+01  1.00800000E+00  1.00800000E+00  1.60000000E+01
  1.00800000E+00  1.00800000E+00  1.60000000E+01  1.00800000E+00  1.00800000E+00
  1.60000000E+01  1.00800000E+00  1.00800000E+00  1.60000000E+01  1.00800000E+00
  1.00800000E+00  1.60000000E+01  1.00800000E+00  1.00800000E+00  1.60000000E+01
  1.00800000E+00  1.00800000E+00  1.60000000E+01  1.00800000E+00  1.00800000E+00
  1.60000000E+01  1.00800000E+00  1.00800000E+00  1.60000000E+01  1.00800000E+00
  1.00800000E+00  1.60000000E+01  1.00800000E+00  1.00800000E+00  1.60000000E+01
  1.00800000E+00  1.00800000E+00  1.60000000E+01  1.00800000E+00  1.00800000E+00
  1.60000000E+01  1.00800000E+00  1.00800000E+00  1.60000000E+01  1.00800000E+00
  1.00800000E+00  1.60000000E+01  1.00800000E+00  1.00800000E+00  1.60000000E+01
  1.00800000E+00  1.00800000E+00  1.60000000E+01  1.00800000E+00  1.00800000E+00
  1.60000000E+01  1.00800000E+00  1.00800000E+00  1.60000000E+01  1.00800000E+00
  1.00800000E+00  1.60000000E+01  1.00800000E+00  1.00800000E+00  1.60000000E+01
  1.00800000E+00  1.00800000E+00  1.60000000E+01  1.00800000E+00  1.00800000E+00
  1.60000000E+01  1.00800000E+00  1.00800000E+00  1.60000000E+01  1.00800000E+00
  1.00800000E+00  1.60000000E+01  1.00800000E+00  1.00800000E+00  1.60000000E+01
  1.00800000E+00  1.00800000E+00  1.60000000E+01  1.00800000E+00  1.00800000E+00
  1.60000000E+01  1.00800000E+00  1.00800000E+00  1.60000000E+01  1.00800000E+00
  1.00800000E+00  1.60000000E+01  1.00800000E+00  1.00800000E+00  1.60000000E+01
  1.00800000E+00  1.00800000E+00  1.60000000E+01  1.00800000E+00  1.00800000E+00
  1.60000000E+01  1.00800000E+00  1.00800000E+00  1.60000000E+01  1.00800000E+00
  1.00800000E+00  1.60000000E+01  1.00800000E+00  1.00800000E+00  1.60000000E+01
  1.00800000E+00  1.00800000E+00  1.60000000E+01  1.00800000E+00  1.00800000E+00
  1.60000000E+01  1.00800000E+00  1.00800000E+00  1.60000000E+01  1.00800000E+00
  1.00800000E+00  1.60000000E+01  1.00800000E+00  1.00800000E+00  1.60000000E+01
  1.00800000E+00  1.00800000E+00  1.60000000E+01  1.00800000E+00  1.00800000E+00
  1.60000000E+01  1.00800000E+00  1.00800000E+00  1.60000000E+01  1.00800000E+00
  1.00800000E+00  1.60000000E+01  1.00800000E+00  1.00800000E+00  1.60000000E+01
  1.00800000E+00  1.00800000E+00  1.60000000E+01  1.00800000E+00  1.00800000E+00
  1.60000000E+01  1.00800000E+00  1.00800000E+00  1.60000000E+01  1.00800000E+00
  1.00800000E+00  1.60000000E+01  1.00800000E+00  1.00800000E+00  1.60000000E+01
  1.00800000E+00  1.00800000E+00  1.60000000E+01  1.00800000E+00  1.00800000E+00
  1.60000000E+01  1.00800000E+00  1.00800000E+00  1.60000000E+01  1.00800000E+00
  1.00800000E+00  1.60000000E+01  1.00800000E+00  1.00800000E+00  1.60000000E+01
  1.00800000E+00  1.00800000E+00  1.60000000E+01  1.00800000E+00  1.00800000E+00
  1.60000000E+01  1.00800000E+00  1.00800000E+00  1.60000000E+01  1.00800000E+00
  1.00800000E+00  1.60000000E+01  1.00800000E+00  1.00800000E+00  1.60000000E+01
  1.00800000E+00  1.00800000E+00  1.60000000E+01  1.00800000E+00  1.00800000E+00
  1.60000000E+01  1.00800000E+00  1.00800000E+00  1.60000000E+01  1.00800000E+00
  1.00800000E+00  1.60000000E+01  1.00800000E+00  1.00800000E+00  1.60000000E+01
  1.00800000E+00  1.00800000E+00  1.60000000E+01  1.00800000E+00  1.00800000E+00
  1.60000000E+01  1.00800000E+00  1.00800000E+00  1.60000000E+01  1.00800000E+00
  1.00800000E+00  1.60000000E+01  1.00800000E+00  1.00800000E+00  1.60000000E+01
  1.00800000E+00  1.00800000E+00  1.60000000E+01  1.00800000E+00  1.00800000E+00
  1.60000000E+01  1.00800000E+00  1.00800000E+00  1.60000000E+01  1.00800000E+00
  1.00800000E+00  1.60000000E+01  1.00800000E+00  1.00800000E+00  1.60000000E+01
  1.00800000E+00  1.00800000E+00  1.60000000E+01  1.00800000E+00  1.00800000E+00
  1.60000000E+01  1.00800000E+00  1.00800000E+00  1.60000000E+01  1.00800000E+00
  1.00800000E+00  1.60000000E+01  1.00800000E+00  1.00800000E+00  1.60000000E+01
  1.00800000E+00  1.00800000E+00  1.60000000E+01  1.00800000E+00  1.00800000E+00
  1.60000000E+01  1.00800000E+00  1.00800000E+00  1.60000000E+01  1.00800000E+00
  1.00800000E+00  1.60000000E+01  1.00800000E+00  1.00800000E+00  1.60000000E+01
  1.00800000E+00  1.00800000E+00  1.60000000E+01  1.00800000E+00  1.00800000E+00
  1.60000000E+01  1.00800000E+00  1.00800000E+00  1.60000000E+01  1.00800000E+00
  1.00800000E+00  1.60000000E+01  1.00800000E+00  1.00800000E+00  1.60000000E+01
  1.00800000E+00  1.00800000E+00  1.60000000E+01  1.00800000E+00  1.00800000E+00
  1.60000000E+01  1.00800000E+00  1.00800000E+00  1.60000000E+01  1.00800000E+00
  1.00800000E+00  1.60000000E+01  1.00800000E+00  1.00800000E+00  1.60000000E+01
  1.00800000E+00  1.00800000E+00  1.60000000E+01  1.00800000E+00  1.00800000E+00
  1.60000000E+01  1.00800000E+00  1.00800000E+00  1.60000000E+01  1.00800000E+00
  1.00800000E+00  1.60000000E+01  1.00800000E+00  1.00800000E+00  1.60000000E+01
  1.00800000E+00  1.00800000E+00  1.60000000E+01  1.00800000E+00  1.00800000E+00
  1.60000000E+01  1.00800000E+00  1.00800000E+00  1.60000000E+01  1.00800000E+00
  1.00800000E+00  1.60000000E+01  1.00800000E+00  1.00800000E+00  1.60000000E+01
  1.00800000E+00  1.00800000E+00  1.60000000E+01  1.00800000E+00  1.00800000E+00
  1.60000000E+01  1.00800000E+00  1.00800000E+00  1.60000000E+01  1.00800000E+00
  1.00800000E+00  1.60000000E+01  1.00800000E+00  1.00800000E+00  1.60000000E+01
  1.00800000E+00  1.00800000E+00  1.60000000E+01  1.00800000E+00  1.00800000E+00
  1.60000000E+01  1.00800000E+00  1.00800000E+00  1.60000000E+01  1.00800000E+00
  1.00800000E+00  1.60000000E+01  1.00800000E+00  1.00800000E+00  1.60000000E+01
  1.00800000E+00  1.00800000E+00  1.60000000E+01  1.00800000E+00  1.00800000E+00
  1.60000000E+01  1.00800000E+00  1.00800000E+00  1.60000000E+01  1.00800000E+00
  1.00800000E+00  1.60000000E+01  1.00800000E+00  1.00800000E+00  1.60000000E+01
  1.00800000E+00  1.00800000E+00  1.60000000E+01  1.00800000E+00  1.00800000E+00
  1.60000000E+01  1.00800000E+00  1.00800000E+00  1.60000000E+01  1.00800000E+00
  1.00800000E+00  1.60000000E+01  1.00800000E+00  1.00800000E+00  1.60000000E+01
  1.00800000E+00  1.00800000E+00  1.60000000E+01  1.00800000E+00  1.00800000E+00
  1.60000000E+01  1.00800000E+00  1.00800000E+00  1.60000000E+01  1.00800000E+00
  1.00800000E+00  1.60000000E+01  1.00800000E+00  1.00800000E+00  1.60000000E+01
  1.00800000E+00  1.00800000E+00  1.60000000E+01  1.00800000E+00  1.00800000E+00
  1.60000000E+01  1.00800000E+00  1.00800000E+00  1.60000000E+01  1.00800000E+00
  1.00800000E+00  1.60000000E+01  1.00800000E+00  1.00800000E+00  1.60000000E+01
  1.00800000E+00  1.00800000E+00  1.60000000E+01  1.00800000E+00  1.00800000E+00
  1.60000000E+01  1.00800000E+00  1.00800000E+00  1.60000000E+01  1.00800000E+00
  1.00800000E+00  1.60000000E+01  1.00800000E+00  1.00800000E+00  1.60000000E+01
  1.00800000E+00  1.00800000E+00  1.60000000E+01  1.00800000E+00  1.00800000E+00
  1.60000000E+01  1.00800000E+00  1.00800000E+00  1.60000000E+01  1.00800000E+00
  1.00800000E+00  1.60000000E+01  1.00800000E+00  1.00800000E+00  1.60000000E+01
  1.00800000E+00  1.00800000E+00  1.60000000E+01  1.00800000E+00  1.00800000E+00
  1.60000000E+01  1.00800000E+00  1.00800000E+00  1.60000000E+01  1.00800000E+00
  1.00800000E+00  1.60000000E+01  1.00800000E+00  1.00800000E+00  1.60000000E+01
  1.00800000E+00  1.00800000E+00  1.60000000E+01  1.00800000E+00  1.00800000E+00
  1.60000000E+01  1.00800000E+00  1.00800000E+00  1.60000000E+01  1.00800000E+00
  1.00800000E+00  1.60000000E+01  1.00800000E+00  1.00800000E+00  1.60000000E+01
  1.00800000E+00  1.00800000E+00  1.60000000E+01  1.00800000E+00  1.00800000E+00
  1.60000000E+01  1.00800000E+00  1.00800000E+00  1.60000000E+01  1.00800000E+00
  1.00800000E+00  1.60000000E+01  1.00800000E+00  1.00800000E+00  1.60000000E+01
  1.00800000E+00  1.00800000E+00  1.60000000E+01  1.00800000E+00  1.00800000E+00
  1.60000000E+01  1.00800000E+00  1.00800000E+00  1.60000000E+01  1.00800000E+00
  1.00800000E+00  1.60000000E+01  1.00800000E+00  1.00800000E+00  1.60000000E+01
  1.00800000E+00  1.00800000E+00  1.60000000E+01  1.00800000E+00  1.00800000E+00
  1.60000000E+01  1.00800000E+00  1.00800000E+00  1.60000000E+01  1.00800000E+00
  1.00800000E+00  1.60000000E+01  1.00800000E+00  1.00800000E+00  1.60000000E+01
  1.00800000E+00  1.00800000E+00  1.60000000E+01  1.00800000E+00  1.00800000E+00
  1.60000000E+01  1.00800000E+00  1.00800000E+00  1.60000000E+01  1.00800000E+00
  1.00800000E+00  1.60000000E+01  1.00800000E+00  1.00800000E+00  1.60000000E+01
  1.00800000E+00  1.00800000E+00  1.60000000E+01  1.00800000E+00  1.00800000E+00
  1.60000000E+01  1.00800000E+00  1.00800000E+00  1.60000000E+01  1.00800000E+00
  1.00800000E+00  1.60000000E+01  1.00800000E+00  1.00800000E+00  1.60000000E+01
  1.00800000E+00  1.00800000E+00  1.60000000E+01  1.00800000E+00  1.00800000E+00
  1.60000000E+01  1.00800000E+00  1.00800000E+00  1.60000000E+01  1.00800000E+00
  1.00800000E+00  1.60000000E+01  1.00800000E+00  1.00800000E+00  1.60000000E+01
  1.00800000E+00  1.00800000E+00  1.60000000E+01  1.00800000E+00  1.00800000E+00
  1.60000000E+01  1.00800000E+00  1.00800000E+00  1.60000000E+01  1.00800000E+00
  1.00800000E+00  1.60000000E+01  1.00800000E+00  1.00800000E+00  1.60000000E+01
  1.00800000E+00  1.00800000E+00  1.60000000E+01  1.00800000E+00  1.00800000E+00
  1.60000000E+01  1.00800000E+00  1.00800000E+00  1.60000000E+01  1.00800000E+00
  1.00800000E+00  1.60000000E+01  1.00800000E+00  1.00800000E+00  1.60000000E+01
  1.00800000E+00  1.00800000E+00  1.60000000E+01  1.00800000E+00  1.00800000E+00
  1.60000000E+01  1.00800000E+00  1.00800000E+00  1.60000000E+01  1.00800000E+00
  1.00800000E+00  1.60000000E+01  1.00800000E+00  1.00800000E+00  1.60000000E+01
  1.00800000E+00  1.00800000E+00  1.60000000E+01  1.00800000E+00  1.00800000E+00
  1.60000000E+01  1.00800000E+00  1.00800000E+00  1.60000000E+01  1.00800000E+00
  1.00800000E+00  1.60000000E+01  1.00800000E+00  1.00800000E+00  1.60000000E+01
  1.00800000E+00  1.00800000E+00  1.60000000E+01  1.00800000E+00  1.00800000E+00
  1.60000000E+01  1.00800000E+00  1.00800000E+00  1.60000000E+01  1.00800000E+00
  1.00800000E+00  1.60000000E+01  1.00800000E+00  1.00800000E+00  1.60000000E+01
  1.00800000E+00  1.00800000E+00  1.60000000E+01  1.00800000E+00  1.00800000E+00
  1.60000000E+01  1.00800000E+00  1.00800000E+00  1.60000000E+01  1.00800000E+00
  1.00800000E+00  1.60000000E+01  1.00800000E+00  1.00800000E+00  1.60000000E+01
  1.00800000E+00  1.00800000E+00  1.60000000E+01  1.00800000E+00  1.00800000E+00
  1.60000000E+01  1.00800000E+00  1.00800000E+00  1.60000000E+01  1.00800000E+00
  1.00800000E+00  1.60000000E+01  1.00800000E+00  1.00800000E+00  1.60000000E+01
  1.00800000E+00  1.00800000E+00  1.60000000E+01  1.00800000E+00  1.00800000E+00
  1.60000000E+01  1.00800000E+00  1.00800000E+00  1.60000000E+01  1.00800000E+00
  1.00800000E+00  1.60000000E+01  1.00800000E+00  1.00800000E+00  1.60000000E+01
  1.00800000E+00  1.00800000E+00  1.60000000E+01  1.00800000E+00  1.00800000E+00
  1.60000000E+01  1.00800000E+00  1.00800000E+00  1.60000000E+01  1.00800000E+00
  1.00800000E+00  1.60000000E+01  1.00800000E+00  1.00800000E+00  1.60000000E+01
  1.00800000E+00  1.00800000E+00  1.60000000E+01  1.00800000E+00  1.00800000E+00
  1.60000000E+01  1.00800000E+00  1.00800000E+00  1.60000000E+01  1.00800000E+00
  1.00800000E+00  1.60000000E+01  1.00800000E+00  1.00800000E+00  1.60000000E+01
  1.00800000E+00  1.00800000E+00  1.60000000E+01  1.00800000E+00  1.00800000E+00
  1.60000000E+01  1.00800000E+00  1.00800000E+00  1.60000000E+01  1.00800000E+00
  1.00800000E+00  1.60000000E+01  1.00800000E+00  1.00800000E+00  1.60000000E+01
  1.00800000E+00  1.00800000E+00  1.60000000E+01  1.00800000E+00  1.00800000E+00
  1.60000000E+01  1.00800000E+00  1.00800000E+00  1.60000000E+01  1.00800000E+00
  1.00800000E+00  1.60000000E+01  1.00800000E+00  1.00800000E+00  1.60000000E+01
  1.00800000E+00  1.00800000E+00  1.60000000E+01  1.00800000E+00  1.00800000E+00
  1.60000000E+01  1.00800000E+00  1.00800000E+00  1.60000000E+01  1.00800000E+00
  1.00800000E+00  1.60000000E+01  1.00800000E+00  1.00800000E+00  1.60000000E+01
  1.00800000E+00  1.00800000E+00  1.60000000E+01  1.00800000E+00  1.00800000E+00
  1.60000000E+01  1.00800000E+00  1.00800000E+00  1.60000000E+01  1.00800000E+00
  1.00800000E+00  1.60000000E+01  1.00800000E+00  1.00800000E+00  1.60000000E+01
  1.00800000E+00  1.00800000E+00  1.60000000E+01  1.00800000E+00  1.00800000E+00
  1.60000000E+01  1.00800000E+00  1.00800000E+00  1.60000000E+01  1.00800000E+00
  1.00800000E+00  1.60000000E+01  1.00800000E+00  1.00800000E+00  1.60000000E+01
  1.00800000E+00  1.00800000E+00  1.60000000E+01  1.00800000E+00  1.00800000E+00
  1.60000000E+01  1.00800000E+00  1.00800000E+00  1.60000000E+01  1.00800000E+00
  1.00800000E+00  1.60000000E+01  1.00800000E+00  1.00800000E+00  1.60000000E+01
  1.00800000E+00  1.00800000E+00  1.60000000E+01  1.00800000E+00  1.00800000E+00
  1.60000000E+01  1.00800000E+00  1.00800000E+00  1.60000000E+01  1.00800000E+00
  1.00800000E+00  1.60000000E+01  1.00800000E+00  1.00800000E+00  1.60000000E+01
  1.00800000E+00  1.00800000E+00  1.60000000E+01  1.00800000E+00  1.00800000E+00
  1.60000000E+01  1.00800000E+00  1.00800000E+00  1.60000000E+01  1.00800000E+00
  1.00800000E+00  1.60000000E+01  1.00800000E+00  1.00800000E+00  1.60000000E+01
  1.00800000E+00  1.00800000E+00  1.60000000E+01  1.00800000E+00  1.00800000E+00
  1.60000000E+01  1.00800000E+00  1.00800000E+00  1.60000000E+01  1.00800000E+00
  1.00800000E+00  1.60000000E+01  1.00800000E+00  1.00800000E+00  1.60000000E+01
  1.00800000E+00  1.00800000E+00  1.60000000E+01  1.00800000E+00  1.00800000E+00
  1.60000000E+01  1.00800000E+00  1.00800000E+00  1.60000000E+01  1.00800000E+00
  1.00800000E+00  1.60000000E+01  1.00800000E+00  1.00800000E+00  1.60000000E+01
  1.00800000E+00  1.00800000E+00  1.60000000E+01  1.00800000E+00  1.00800000E+00
  1.60000000E+01  1.00800000E+00  1.00800000E+00  1.60000000E+01  1.00800000E+00
  1.00800000E+00  1.60000000E+01  1.00800000E+00  1.00800000E+00  1.60000000E+01
  1.00800000E+00  1.00800000E+00  1.60000000E+01  1.00800000E+00  1.00800000E+00
  1.60000000E+01  1.00800000E+00  1.00800000E+00  1.60000000E+01  1.00800000E+00
  1.00800000E+00  1.60000000E+01  1.00800000E+00  1.00800000E+00  1.60000000E+01
  1.00800000E+00  1.00800000E+00  1.60000000E+01  1.00800000E+00  1.00800000E+00
  1.60000000E+01  1.00800000E+00  1.00800000E+00  1.60000000E+01  1.00800000E+00
  1.00800000E+00  1.60000000E+01  1.00800000E+00  1.00800000E+00  1.60000000E+01
  1.00800000E+00  1.00800000E+00  1.60000000E+01  1.00800000E+00  1.00800000E+00
  1.60000000E+01  1.00800000E+00  1.00800000E+00  1.60000000E+01  1.00800000E+00
  1.00800000E+00  1.60000000E+01  1.00800000E+00  1.00800000E+00  1.60000000E+01
  1.00800000E+00  1.00800000E+00  1.60000000E+01  1.00800000E+00  1.00800000E+00
  1.60000000E+01  1.00800000E+00  1.00800000E+00  1.60000000E+01  1.00800000E+00
  1.00800000E+00  1.60000000E+01  1.00800000E+00  1.00800000E+00  1.60000000E+01
  1.00800000E+00  1.00800000E+00  1.60000000E+01  1.00800000E+00  1.00800000E+00
  1.60000000E+01  1.00800000E+00  1.00800000E+00  1.60000000E+01  1.00800000E+00
  1.00800000E+00  1.60000000E+01  1.00800000E+00  1.00800000E+00  1.60000000E+01
  1.00800000E+00  1.00800000E+00  1.60000000E+01  1.00800000E+00  1.00800000E+00
  1.60000000E+01  1.00800000E+00  1.00800000E+00  1.60000000E+01  1.00800000E+00
  1.00800000E+00  1.60000000E+01  1.00800000E+00  1.00800000E+00  1.60000000E+01
  1.00800000E+00  1.00800000E+00  1.60000000E+01  1.00800000E+00  1.00800000E+00
  1.60000000E+01  1.00800000E+00  1.00800000E+00  1.60000000E+01  1.00800000E+00
  1.00800000E+00  1.60000000E+01  1.00800000E+00  1.00800000E+00  1.60000000E+01
  1.00800000E+00  1.00800000E+00  1.60000000E+01  1.00800000E+00  1.00800000E+00
  1.60000000E+01  1.00800000E+00  1.00800000E+00  1.60000000E+01  1.00800000E+00
  1.00800000E+00  1.60000000E+01  1.00800000E+00  1.00800000E+00  1.60000000E+01
  1.00800000E+00  1.00800000E+00  1.60000000E+01  1.00800000E+00  1.00800000E+00
  1.60000000E+01  1.00800000E+00  1.00800000E+00  1.60000000E+01  1.00800000E+00
  1.00800000E+00  1.60000000E+01  1.00800000E+00  1.00800000E+00  1.60000000E+01
  1.00800000E+00  1.00800000E+00  1.60000000E+01  1.00800000E+00  1.00800000E+00
  1.60000000E+01  1.00800000E+00  1.00800000E+00  1.60000000E+01  1.00800000E+00
  1.00800000E+00  1.60000000E+01  1.00800000E+00  1.00800000E+00  1.60000000E+01
  1.00800000E+00  1.00800000E+00  1.60000000E+01  1.00800000E+00  1.00800000E+00
  1.60000000E+01  1.00800000E+00  1.00800000E+00  1.60000000E+01  1.00800000E+00
  1.00800000E+00  1.60000000E+01  1.00800000E+00  1.00800000E+00  1.60000000E+01
  1.00800000E+00  1.00800000E+00  1.60000000E+01  1.00800000E+00  1.00800000E+00
  1.60000000E+01  1.00800000E+00  1.00800000E+00  1.60000000E+01  1.00800000E+00
  1.00800000E+00  1.60000000E+01  1.00800000E+00  1.00800000E+00  1.60000000E+01
  1.00800000E+00  1.00800000E+00  1.60000000E+01  1.00800000E+00  1.00800000E+00
  1.60000000E+01  1.00800000E+00  1.00800000E+00  1.60000000E+01  1.00800000E+00
  1.00800000E+00  1.60000000E+01  1.00800000E+00  1.00800000E+00  1.60000000E+01
  1.00800000E+00  1.00800000E+00  1.60000000E+01  1.00800000E+00  1.00800000E+00
  1.60000000E+01  1.00800000E+00  1.00800000E+00  1.60000000E+01  1.00800000E+00
  1.00800000E+00  1.60000000E+01  1.00800000E+00  1.00800000E+00  1.60000000E+01
  1.00800000E+00  1.00800000E+00  1.60000000E+01  1.00800000E+00  1.00800000E+00
  1.60000000E+01  1.00800000E+00  1.00800000E+00  1.60000000E+01  1.00800000E+00
  1.00800000E+00  1.60000000E+01  1.00800000E+00  1.00800000E+00  1.60000000E+01
  1.00800000E+00  1.00800000E+00  1.60000000E+01  1.00800000E+00  1.00800000E+00
  1.60000000E+01  1.00800000E+00  1.00800000E+00  1.60000000E+01  1.00800000E+00
  1.00800000E+00  1.60000000E+01  1.00800000E+00  1.00800000E+00  1.60000000E+01
  1.00800000E+00  1.00800000E+00  1.60000000E+01  1.00800000E+00  1.00800000E+00
  1.60000000E+01  1.00800000E+00  1.00800000E+00  1.60000000E+01  1.00800000E+00
  1.00800000E+00  1.60000000E+01  1.00800000E+00  1.00800000E+00  1.60000000E+01
  1.00800000E+00  1.00800000E+00  1.60000000E+01  1.00800000E+00  1.00800000E+00
  1.60000000E+01  1.00800000E+00  1.00800000E+00  1.60000000E+01  1.00800000E+00
  1.00800000E+00  1.60000000E+01  1.00800000E+00  1.00800000E+00  1.60000000E+01
  1.00800000E+00  1.00800000E+00  1.60000000E+01  1.00800000E+00  1.00800000E+00
  1.60000000E+01  1.00800000E+00  1.00800000E+00  1.60000000E+01  1.00800000E+00
  1.00800000E+00  1.60000000E+01  1.00800000E+00  1.00800000E+00  1.60000000E+01
  1.00800000E+00  1.00800000E+00  1.60000000E+01  1.00800000E+00  1.00800000E+00
  1.60000000E+01  1.00800000E+00  1.00800000E+00  1.60000000E+01  1.00800000E+00
  1.00800000E+00  1.60000000E+01  1.00800000E+00  1.00800000E+00  1.60000000E+01
  1.00800000E+00  1.00800000E+00  1.60000000E+01  1.00800000E+00  1.00800000E+00
  1.60000000E+01  1.00800000E+00  1.00800000E+00  1.60000000E+01  1.00800000E+00
  1.00800000E+00  1.60000000E+01  1.00800000E+00  1.00800000E+00  1.60000000E+01
  1.00800000E+00  1.00800000E+00  1.60000000E+01  1.00800000E+00  1.00800000E+00
  1.60000000E+01  1.00800000E+00  1.00800000E+00  1.60000000E+01  1.00800000E+00
  1.00800000E+00  1.60000000E+01  1.00800000E+00  1.00800000E+00  1.60000000E+01
  1.00800000E+00  1.00800000E+00  1.60000000E+01  1.00800000E+00  1.00800000E+00
  1.60000000E+01  1.00800000E+00  1.00800000E+00  1.60000000E+01  1.00800000E+00
  1.00800000E+00  1.60000000E+01  1.00800000E+00  1.00800000E+00  1.60000000E+01
  1.00800000E+00  1.00800000E+00  1.60000000E+01  1.00800000E+00  1.00800000E+00
  1.60000000E+01  1.00800000E+00  1.00800000E+00  1.60000000E+01  1.00800000E+00
  1.00800000E+00  1.60000000E+01  1.00800000E+00  1.00800000E+00  1.60000000E+01
  1.00800000E+00  1.00800000E+00  1.60000000E+01  1.00800000E+00  1.00800000E+00
  1.60000000E+01  1.00800000E+00  1.00800000E+00  1.60000000E+01  1.00800000E+00
  1.00800000E+00  1.60000000E+01  1.00800000E+00  1.00800000E+00  1.60000000E+01
  1.00800000E+00  1.00800000E+00  1.60000000E+01  1.00800000E+00  1.00800000E+00
  1.60000000E+01  1.00800000E+00  1.00800000E+00  1.60000000E+01  1.00800000E+00
  1.00800000E+00  1.60000000E+01  1.00800000E+00  1.00800000E+00  1.60000000E+01
  1.00800000E+00  1.00800000E+00  1.60000000E+01  1.00800000E+00  1.00800000E+00
  1.60000000E+01  1.00800000E+00  1.00800000E+00  1.60000000E+01  1.00800000E+00
  1.00800000E+00  1.60000000E+01  1.00800000E+00  1.00800000E+00  1.60000000E+01
  1.00800000E+00  1.00800000E+00  1.60000000E+01  1.00800000E+00  1.00800000E+00
  1.60000000E+01  1.00800000E+00  1.00800000E+00  1.60000000E+01  1.00800000E+00
  1.00800000E+00  1.60000000E+01  1.00800000E+00  1.00800000E+00  1.60000000E+01
  1.00800000E+00  1.00800000E+00  1.60000000E+01  1.00800000E+00  1.00800000E+00
  1.60000000E+01  1.00800000E+00  1.00800000E+00  1.60000000E+01  1.00800000E+00
  1.00800000E+00  1.60000000E+01  1.00800000E+00  1.00800000E+00  1.60000000E+01
  1.00800000E+00  1.00800000E+00  1.60000000E+01  1.00800000E+00  1.00800000E+00
  1.60000000E+01  1.00800000E+00  1.00800000E+00  1.60000000E+01  1.00800000E+00
  1.00800000E+00  1.60000000E+01  1.00800000E+00  1.00800000E+00  1.60000000E+01
  1.00800000E+00  1.00800000E+00  1.60000000E+01  1.00800000E+00  1.00800000E+00
  1.60000000E+01  1.00800000E+00  1.00800000E+00  1.60000000E+01  1.00800000E+00
  1.00800000E+00  1.60000000E+01  1.00800000E+00  1.00800000E+00  1.60000000E+01
  1.00800000E+00  1.00800000E+00  1.60000000E+01  1.00800000E+00  1.00800000E+00
  1.60000000E+01  1.00800000E+00  1.00800000E+00  1.60000000E+01  1.00800000E+00
  1.00800000E+00  1.60000000E+01  1.00800000E+00  1.00800000E+00  1.60000000E+01
  1.00800000E+00  1.00800000E+00  1.60000000E+01  1.00800000E+00  1.00800000E+00
  1.60000000E+01  1.00800000E+00  1.00800000E+00  1.60000000E+01  1.00800000E+00
  1.00800000E+00  1.60000000E+01  1.00800000E+00  1.00800000E+00  1.60000000E+01
  1.00800000E+00  1.00800000E+00  1.60000000E+01  1.00800000E+00  1.00800000E+00
  1.60000000E+01  1.00800000E+00  1.00800000E+00  1.60000000E+01  1.00800000E+00
  1.00800000E+00  1.60000000E+01  1.00800000E+00  1.00800000E+00  1.60000000E+01
  1.00800000E+00  1.00800000E+00  1.60000000E+01  1.00800000E+00  1.00800000E+00
  1.60000000E+01  1.00800000E+00  1.00800000E+00  1.60000000E+01  1.00800000E+00
  1.00800000E+00  1.60000000E+01  1.00800000E+00  1.00800000E+00  1.60000000E+01
  1.00800000E+00  1.00800000E+00  1.60000000E+01  1.00800000E+00  1.00800000E+00
  1.60000000E+01  1.00800000E+00  1.00800000E+00  1.60000000E+01  1.00800000E+00
  1.00800000E+00  1.60000000E+01  1.00800000E+00  1.00800000E+00  1.60000000E+01
  1.00800000E+00  1.00800000E+00  1.60000000E+01  1.00800000E+00  1.00800000E+00
  1.60000000E+01  1.00800000E+00  1.00800000E+00  1.60000000E+01  1.00800000E+00
  1.00800000E+00  1.60000000E+01  1.00800000E+00  1.00800000E+00  1.60000000E+01
  1.00800000E+00  1.00800000E+00  1.60000000E+01  1.00800000E+00  1.00800000E+00
  1.60000000E+01  1.00800000E+00  1.00800000E+00  1.60000000E+01  1.00800000E+00
  1.00800000E+00  1.60000000E+01  1.00800000E+00  1.00800000E+00  1.60000000E+01
  1.00800000E+00  1.00800000E+00  1.60000000E+01  1.00800000E+00  1.00800000E+00
  1.60000000E+01  1.00800000E+00  1.00800000E+00  1.60000000E+01  1.00800000E+00
  1.00800000E+00  1.60000000E+01  1.00800000E+00  1.00800000E+00  1.60000000E+01
  1.00800000E+00  1.00800000E+00  1.60000000E+01  1.00800000E+00  1.00800000E+00
  1.60000000E+01  1.00800000E+00  1.00800000E+00  1.60000000E+01  1.00800000E+00
  1.00800000E+00  1.60000000E+01  1.00800000E+00  1.00800000E+00  1.60000000E+01
  1.00800000E+00  1.00800000E+00  1.60000000E+01  1.00800000E+00  1.00800000E+00
  1.60000000E+01  1.00800000E+00  1.00800000E+00  1.60000000E+01  1.00800000E+00
  1.00800000E+00  1.60000000E+01  1.00800000E+00  1.00800000E+00  1.60000000E+01
  1.00800000E+00  1.00800000E+00  1.60000000E+01  1.00800000E+00  1.00800000E+00
  1.60000000E+01  1.00800000E+00  1.00800000E+00  1.60000000E+01  1.00800000E+00
  1.00800000E+00  1.60000000E+01  1.00800000E+00  1.00800000E+00  1.60000000E+01
  1.00800000E+00  1.00800000E+00  1.60000000E+01  1.00800000E+00  1.00800000E+00
  1.60000000E+01  1.00800000E+00  1.00800000E+00  1.60000000E+01  1.00800000E+00
  1.00800000E+00  1.60000000E+01  1.00800000E+00  1.00800000E+00  1.60000000E+01
  1.00800000E+00  1.00800000E+00  1.60000000E+01  1.00800000E+00  1.00800000E+00
  1.60000000E+01  1.00800000E+00  1.00800000E+00  1.60000000E+01  1.00800000E+00
  1.00800000E+00  1.60000000E+01  1.00800000E+00  1.00800000E+00  1.60000000E+01
  1.00800000E+00  1.00800000E+00  1.60000000E+01  1.00800000E+00  1.00800000E+00
  1.60000000E+01  1.00800000E+00  1.00800000E+00  1.60000000E+01  1.00800000E+00
  1.00800000E+00  1.60000000E+01  1.00800000E+00  1.00800000E+00  1.60000000E+01
  1.00800000E+00  1.00800000E+00  1.60000000E+01  1.00800000E+00  1.00800000E+00
  1.60000000E+01  1.00800000E+00  1.00800000E+00  1.60000000E+01  1.00800000E+00
  1.00800000E+00  1.60000000E+01  1.00800000E+00  1.00800000E+00  1.60000000E+01
  1.00800000E+00  1.00800000E+00  1.60000000E+01  1.00800000E+00  1.00800000E+00
  1.60000000E+01  1.00800000E+00  1.00800000E+00  1.60000000E+01  1.00800000E+00
  1.00800000E+00  1.60000000E+01  1.00800000E+00  1.00800000E+00  1.60000000E+01
  1.00800000E+00  1.00800000E+00  1.60000000E+01  1.00800000E+00  1.00800000E+00
  1.60000000E+01  1.00800000E+00  1.00800000E+00  1.60000000E+01  1.00800000E+00
  1.00800000E+00  1.60000000E+01  1.00800000E+00  1.00800000E+00  1.60000000E+01
  1.00800000E+00  1.00800000E+00  1.60000000E+01  1.00800000E+00  1.00800000E+00
  1.60000000E+01  1.00800000E+00  1.00800000E+00  1.60000000E+01  1.00800000E+00
  1.00800000E+00  1.60000000E+01  1.00800000E+00  1.00800000E+00  1.60000000E+01
  1.00800000E+00  1.00800000E+00  1.60000000E+01  1.00800000E+00  1.00800000E+00
  1.60000000E+01  1.00800000E+00  1.00800000E+00  1.60000000E+01  1.00800000E+00
  1.00800000E+00  1.60000000E+01  1.00800000E+00  1.00800000E+00  1.60000000E+01
  1.00800000E+00  1.00800000E+00  1.60000000E+01  1.00800000E+00  1.00800000E+00
  1.60000000E+01  1.00800000E+00  1.00800000E+00  1.60000000E+01  1.00800000E+00
  1.00800000E+00  1.60000000E+01  1.00800000E+00  1.00800000E+00  1.60000000E+01
  1.00800000E+00  1.00800000E+00  1.60000000E+01  1.00800000E+00  1.00800000E+00
  1.60000000E+01  1.00800000E+00  1.00800000E+00  1.60000000E+01  1.00800000E+00
  1.00800000E+00  1.60000000E+01  1.00800000E+00  1.00800000E+00  1.60000000E+01
  1.00800000E+00  1.00800000E+00  1.60000000E+01  1.00800000E+00  1.00800000E+00
  1.60000000E+01  1.00800000E+00  1.00800000E+00  1.60000000E+01  1.00800000E+00
  1.00800000E+00  1.60000000E+01  1.00800000E+00  1.00800000E+00  1.60000000E+01
  1.00800000E+00  1.00800000E+00  1.60000000E+01  1.00800000E+00  1.00800000E+00
  1.60000000E+01  1.00800000E+00  1.00800000E+00
%FLAG ATOM_TYPE_INDEX                                                           
%FORMAT(10I8)                                                                   
       1       2       2       2       3       4       4       5       6       1
       2       3       7       3       8       8       5       5       9       5
       9       5      10      11       5       9       5       9       5       6
       1       2       3       7       3       8       8       5       6       6
       5       6       1       3       7       7       3       8       8       3
       8       8       3       7       5       6       1       2       3       7
       3       8       8       3       8       8       5       6       6       5
       6       1       2       3       7       3       7       3       8       8
       8      10      11       5       6       1       2       3       7       7
       5       6       1       2       3       7       3       7       3       8
       8       8      10      11       5       6       1       2       3       7
       3       8       8       5       5      12       1       2       5       5
       9       5       9       5       9       5       9       5       5       6
       1       2       3       7       7       5       6       6      13      13
      14      15      15      14      15      15      14      15      15      14
      15      15      14      15      15      14      15      15      14      15
      15      14      15      15      14      15      15      14      15      15
      14      15      15      14      15      15      14      15      15      14
      15      15      14      15      15      14      15      15      14      15
      15      14      15      15      14      15      15      14      15      15
      14      15      15      14      15      15      14      15      15      14
      15      15      14      15      15      14      15      15      14      15
      15      14      15      15      14      15      15      14      15      15
      14      15      15      14      15      15      14      15      15      14
      15      15      14      15      15      14      15      15      14      15
      15      14      15      15      14      15      15      14      15      15
      14      15      15      14      15      15      14      15      15      14
      15      15      14      15      15      14      15      15      14      15
      15      14      15      15      14      15      15      14      15      15
      14      15      15      14      15      15      14      15      15      14
      15      15      14      15      15      14      15      15      14      15
      15      14      15      15      14      15      15      14      15      15
      14      15      15      14      15      15      14      15      15      14
      15      15      14      15      15      14      15      15      14      15
      15      14      15      15      14      15      15      14      15      15
      14      15      15      14      15      15      14      15      15      14
      15      15      14      15      15      14      15      15      14      15
      15      14      15      15      14      15      15      14      15      15
      14      15      15      14      15      15      14      15      15      14
      15      15      14      15      15      14      15      15      14      15
      15      14      15      15      14      15      15      14      15      15
      14      15      15      14      15      15      14      15      15      14
      15      15      14      15      15      14      15      15      14      15
      15      14      15      15      14      15      15      14      15      15
      14      15      15      14      15      15      14      15      15      14
      15      15      14      15      15      14      15      15      14      15
      15      14      15      15      14      15      15      14      15      15
      14      15      15      14      15      15      14      15      15      14
      15      15      14      15      15      14      15      15      14      15
      15      14      15      15      14      15      15      14      15      15
      14      15      15      14      15      15      14      15      15      14
      15      15      14      15      15      14      15      15      14      15
      15      14      15      15      14      15      15      14      15      15
      14      15      15      14      15      15      14      15      15      14
      15      15      14      15      15      14      15      15      14      15
      15      14      15      15      14      15      15      14      15      15
      14      15      15      14      15      15      14      15      15      14
      15      15      14      15      15      14      15      15      14      15
      15      14      15      15      14      15      15      14      15      15
      14      15      15      14      15      15      14      15      15      14
      15      15      14      15      15      14      15      15      14      15
      15      14      15      15      14      15      15      14      15      15
      14      15      15      14      15      15      14      15      15      14
      15      15      14      15      15      14      15      15      14      15
      15      14      15      15      14      15      15      14      15      15
      14      15      15      14      15      15      14      15      15      14
      15      15      14      15      15      14      15      15      14      15
      15      14      15      15      14      15      15      14      15      15
      14      15      15      14      15      15      14      15      15      14
      15      15      14      15      15      14      15      15      14      15
      15      14      15      15      14      15      15      14      15      15
      14      15      15      14      15      15      14      15      15      14
      15      15      14      15      15      14      15      15      14      15
      15      14      15      15      14      15      15      14      15      15
      14      15      15      14      15      15      14      15      15      14
      15      15      14      15      15      14      15      15      14      15
      15      14      15      15      14      15      15      14      15      15
      14      15      15      14      15      15      14      15      15      14
      15      15      14      15      15      14      15      15      14      15
      15      14      15      15      14      15      15      14      15      15
      14      15      15      14      15      15      14      15      15      14
      15      15      14      15      15      14      15      15      14      15
      15      14      15      15      14      15      15      14      15      15
      14      15      15      14      15      15      14      15      15      14
      15      15      14      15      15      14      15      15      14      15
      15      14      15      15      14      15      15      14      15      15
      14      15      15      14      15      15      14      15      15      14
      15      15      14      15      15      14      15      15      14      15
      15      14      15      15      14      15      15      14      15      15
      14      15      15      14      15      15      14      15      15      14
      15      15      14      15      15      14      15      15      14      15
      15      14      15      15      14      15      15      14      15      15
      14      15      15      14      15      15      14      15      15      14
      15      15      14      15      15      14      15      15      14      15
      15      14      15      15      14      15      15      14      15      15
      14      15      15      14      15      15      14      15      15      14
      15      15      14      15      15      14      15      15      14      15
      15      14      15      15      14      15      15      14      15      15
      14      15      15      14      15      15      14      15      15      14
      15      15      14      15      15      14      15      15      14      15
      15      14      15      15      14      15      15      14      15      15
      14      15      15      14      15      15      14      15      15      14
      15      15      14      15      15      14      15      15      14      15
      15      14      15      15      14      15      15      14      15      15
      14      15      15      14      15      15      14      15      15      14
      15      15      14      15      15      14      15      15      14      15
      15      14      15      15      14      15      15      14      15      15
      14      15      15      14      15      15      14      15      15      14
      15      15      14      15      15      14      15      15      14      15
      15      14      15      15      14      15      15      14      15      15
      14      15      15      14      15      15      14      15      15      14
      15      15      14      15      15      14      15      15      14      15
      15      14      15      15      14      15      15      14      15      15
      14      15      15      14      15      15      14      15      15      14
      15      15      14      15      15      14      15      15      14      15
      15      14      15      15      14      15      15      14      15      15
      14      15      15      14      15      15      14      15      15      14
      15      15      14      15      15      14      15      15      14      15
      15      14      15      15      14      15      15      14      15      15
      14      15      15      14      15      15      14      15      15      14
      15      15      14      15      15      14      15      15      14      15
      15      14      15      15      14      15      15      14      15      15
      14      15      15      14      15      15      14      15      15      14
      15      15      14      15      15      14      15      15      14      15
      15      14      15      15      14      15      15      14      15      15
      14      15      15      14      15      15      14      15      15      14
      15      15      14      15      15      14      15      15      14      15
      15      14      15      15      14      15      15      14      15      15
      14      15      15      14      15      15      14      15      15      14
      15      15      14      15      15      14      15      15      14      15
      15      14      15      15      14      15      15      14      15      15
      14      15      15      14      15      15      14      15      15      14
      15      15      14      15      15      14      15      15      14      15
      15      14      15      15      14      15      15      14      15      15
      14      15      15      14      15      15      14      15      15      14
      15      15      14      15      15      14      15      15      14      15
      15      14      15      15      14      15      15      14      15      15
      14      15      15      14      15      15      14      15      15      14
      15      15      14      15      15      14      15      15      14      15
      15      14      15      15      14      15      15      14      15      15
      14      15      15      14      15      15      14      15      15      14
      15      15      14      15      15      14      15      15      14      15
      15      14      15      15      14      15      15      14      15      15
      14      15      15      14      15      15      14      15      15      14
      15      15      14      15      15      14      15      15      14      15
      15      14      15      15      14      15      15      14      15      15
      14      15      15      14      15      15      14      15      15      14
      15      15      14      15      15      14      15      15      14      15
      15      14      15      15      14      15      15      14      15      15
      14      15      15      14      15      15      14      15      15      14
      15      15      14      15      15      14      15      15      14      15
      15      14      15      15      14      15      15      14      15      15
      14      15      15      14      15      15      14      15      15      14
      15      15      14      15      15      14      15      15      14      15
      15      14      15      15      14      15      15      14      15      15
      14      15      15      14      15      15      14      15      15      14
      15      15      14      15      15      14      15      15      14      15
      15      14      15      15      14      15      15      14      15      15
      14      15      15      14      15      15      14      15      15      14
      15      15      14      15      15      14      15      15      14      15
      15      14      15      15      14      15      15      14      15      15
      14      15      15      14      15      15      14      15      15      14
      15      15      14      15      15      14      15      15      14      15
      15      14      15      15      14      15      15      14      15      15
      14      15      15      14      15      15      14      15      15      14
      15      15      14      15      15      14      15      15      14      15
      15      14      15      15      14      15      15      14      15      15
      14      15      15      14      15      15      14      15      15      14
      15      15      14      15      15      14      15      15      14      15
      15      14      15      15      14      15      15      14      15      15
      14      15      15      14      15      15      14      15      15      14
      15      15      14      15      15      14      15      15      14      15
      15      14      15      15      14      15      15      14      15      15
      14      15      15      14      15      15      14      15      15      14
      15      15      14      15      15      14      15      15      14      15
      15      14      15      15      14      15      15      14      15      15
      14      15      15      14      15      15      14      15      15      14
      15      15      14      15      15      14      15      15      14      15
      15      14      15      15      14      15      15      14      15      15
      14      15      15      14      15      15      14      15      15      14
      15      15      14      15      15      14      15      15      14      15
      15      14      15      15      14      15      15      14      15      15
      14      15      15      14      15      15      14      15      15      14
      15      15      14      15      15      14      15      15      14      15
      15      14      15      15      14      15      15      14      15      15
      14      15      15      14      15      15      14      15      15      14
      15      15      14      15      15      14      15      15      14      15
      15      14      15      15      14      15      15      14      15      15
      14      15      15      14      15      15      14      15      15      14
      15      15      14      15      15      14      15      15      14      15
      15      14      15      15      14      15      15      14      15      15
      14      15      15      14      15      15      14      15      15      14
      15      15      14      15      15      14      15      15      14      15
      15      14      15      15      14      15      15      14      15      15
      14      15      15      14      15      15      14      15      15      14
      15      15      14      15      15      14      15      15      14      15
      15      14      15      15      14      15      15      14      15      15
      14      15      15      14      15      15      14      15      15      14
      15      15      14      15      15      14      15      15      14      15
      15      14      15      15      14      15      15      14      15      15
      14      15      15      14      15      15      14      15      15      14
      15      15      14      15      15      14      15      15      14      15
      15      14      15      15      14      15      15      14      15      15
      14      15      15      14      15      15      14      15      15      14
      15      15      14      15      15      14      15      15      14      15
      15      14      15      15      14      15      15      14      15      15
      14      15      15      14      15      15      14      15      15      14
      15      15      14      15      15      14      15      15      14      15
      15      14      15      15      14      15      15      14      15      15
      14      15      15      14      15      15      14      15      15      14
      15      15      14      15      15      14      15      15      14      15
      15      14      15      15      14      15      15      14      15      15
      14      15      15      14      15      15      14      15      15      14
      15      15      14      15      15      14      15      15      14      15
      15      14      15      15      14      15      15      14      15      15
      14      15      15      14      15      15      14      15      15      14
      15      15      14      15      15      14      15      15      14      15
      15      14      15      15      14      15      15      14      15      15
      14      15      15      14      15      15      14      15      15      14
      15      15      14      15      15      14      15      15      14      15
      15      14      15      15      14      15      15      14      15      15
      14      15      15      14      15      15      14      15      15      14
      15      15      14      15      15      14      15      15      14      15
      15      14      15      15      14      15      15      14      15      15
      14      15      15      14      15      15      14      15      15      14
      15      15      14      15      15      14      15      15      14      15
      15      14      15      15      14      15      15      14      15      15
      14      15      15      14      15      15      14      15      15      14
      15      15      14      15      15      14      15      15      14      15
      15      14      15      15      14      15      15      14      15      15
      14      15      15      14      15      15      14      15      15      14
      15      15      14      15      15      14      15      15      14      15
      15      14      15      15      14      15      15      14      15      15
      14      15      15      14      15      15      14      15      15      14
      15      15      14      15      15      14      15      15      14      15
      15      14      15      15      14      15      15      14      15      15
      14      15      15      14      15      15      14      15      15      14
      15      15      14      15      15      14      15      15      14      15
      15      14      15      15      14      15      15      14      15      15
      14      15      15      14      15      15      14      15      15      14
      15      15      14      15      15      14      15      15      14      15
      15      14      15      15      14      15      15      14      15      15
      14      15      15      14      15      15      14      15      15      14
      15      15      14      15      15      14      15      15      14      15
      15      14      15      15      14      15      15      14      15      15
      14      15      15      14      15      15      14      15      15      14
      15      15      14      15      15      14      15      15      14      15
      15      14      15      15      14      15      15      14      15      15
      14      15      15      14      15      15      14      15      15      14
      15      15      14      15      15      14      15      15      14      15
      15      14      15      15      14      15      15      14      15      15
      14      15      15      14      15      15      14      15      15      14
      15      15      14      15      15      14      15      15      14      15
      15      14      15      15      14      15      15      14      15      15
      14      15      15      14      15      15      14      15      15      14
      15      15      14      15      15      14      15      15      14      15
      15      14      15      15      14      15      15      14      15      15
      14      15      15      14      15      15      14      15      15      14
      15      15      14      15      15      14      15      15      14      15
      15      14      15      15      14      15      15      14      15      15
      14      15      15      14      15      15      14      15      15      14
      15      15      14      15      15      14      15      15      14      15
      15      14      15      15      14      15      15      14      15      15
      14      15      15      14      15      15      14      15      15      14
      15      15      14      15      15      14      15      15      14      15
      15      14      15      15      14      15      15      14      15      15
      14      15      15      14      15      15      14      15      15      14
      15      15      14      15      15      14      15      15      14      15
      15      14      15      15      14      15      15      14      15      15
      14      15      15      14      15      15      14      15      15      14
      15      15      14      15      15      14      15      15      14      15
      15      14      15      15      14      15      15      14      15      15
      14      15      15      14      15      15      14      15      15      14
      15      15      14      15      15      14      15      15      14      15
      15      14      15      15      14      15      15      14      15      15
      14      15      15      14      15      15      14      15      15      14
      15      15      14      15      15      14      15      15      14      15
      15      14      15      15      14      15      15      14      15      15
      14      15      15      14      15      15      14      15      15      14
      15      15      14      15      15      14      15      15      14      15
      15      14      15      15      14      15      15      14      15      15
      14      15      15      14      15      15      14      15      15      14
      15      15      14      15      15      14      15      15      14      15
      15      14      15      15      14      15      15      14      15      15
      14      15      15      14      15      15      14      15      15      14
      15      15      14      15      15      14      15      15      14      15
      15      14      15      15      14      15      15      14      15      15
      14      15      15      14      15      15      14      15      15      14
      15      15      14      15      15      14      15      15      14      15
      15      14      15      15      14      15      15      14      15      15
      14      15      15      14      15      15      14      15      15      14
      15      15      14      15      15      14      15      15      14      15
      15      14      15      15      14      15      15      14      15      15
      14      15      15      14      15      15      14      15      15      14
      15      15      14      15      15      14      15      15      14      15
      15      14      15      15      14      15      15      14      15      15
      14      15      15      14      15      15      14      15      15      14
      15      15      14      15      15      14      15      15      14      15
      15      14      15      15      14      15      15      14      15      15
      14      15      15      14      15      15      14      15      15      14
      15      15      14      15      15      14      15      15      14      15
      15      14      15      15      14      15      15      14      15      15
      14      15      15      14      15      15      14      15      15      14
      15      15      14      15      15      14      15      15      14      15
      15      14      15      15      14      15      15      14      15      15
      14      15      15      14      15      15      14      15      15      14
      15      15      14      15      15      14      15      15      14      15
      15      14      15      15      14      15      15      14      15      15
      14      15      15      14      15      15      14      15      15      14
      15      15      14      15      15      14      15      15      14      15
      15      14      15      15      14      15      15      14      15      15
      14      15      15      14      15      15      14      15      15      14
      15      15      14      15      15      14      15      15      14      15
      15      14      15      15      14      15      15      14      15      15
      14      15      15      14      15      15      14      15      15      14
      15      15      14      15      15      14      15      15      14      15
      15      14      15      15      14      15      15      14      15      15
      14      15      15      14      15      15      14      15      15      14
      15      15      14      15      15      14      15      15      14      15
      15      14      15      15      14      15      15      14      15      15
      14      15      15      14      15      15      14      15      15      14
      15      15      14      15      15      14      15      15      14      15
      15      14      15      15      14      15      15      14      15      15
      14      15      15      14      15      15      14      15      15      14
      15      15      14      15      15      14      15      15      14      15
      15      14      15      15      14      15      15      14      15      15
      14      15      15      14      15      15      14      15      15      14
      15      15      14      15      15      14      15      15      14      15
      15      14      15      15      14      15      15      14      15      15
      14      15      15      14      15      15      14      15      15      14
      15      15      14      15      15      14      15      15      14      15
      15      14      15      15      14      15      15      14      15      15
      14      15      15      14      15      15      14      15      15      14
      15      15      14      15      15      14      15      15      14      15
      15      14      15      15      14      15      15      14      15      15
      14      15      15      14      15      15      14      15      15      14
      15      15      14      15      15      14      15      15      14      15
      15      14      15      15      14      15      15      14      15      15
      14      15      15      14      15      15      14      15      15      14
      15      15      14      15      15      14      15      15      14      15
      15      14      15      15      14      15      15      14      15      15
      14      15      15      14      15      15      14      15      15      14
      15      15      14      15      15      14      15      15      14      15
      15      14      15      15      14      15      15      14      15      15
      14      15      15      14      15      15      14      15      15      14
      15      15      14      15      15      14      15      15      14      15
      15      14      15      15      14      15      15      14      15      15
      14      15      15      14      15      15      14      15      15      14
      15      15      14      15      15      14      15      15      14      15
      15      14      15      15      14      15      15      14      15      15
      14      15      15      14      15      15      14      15      15      14
      15      15      14      15      15      14      15      15      14      15
      15      14      15      15      14      15      15      14      15      15
      14      15      15      14      15      15      14      15      15      14
      15      15      14      15      15      14      15      15      14      15
      15      14      15      15      14      15      15      14      15      15
      14      15      15      14      15      15      14      15      15      14
      15      15      14      15      15      14      15      15      14      15
      15      14      15      15      14      15      15      14      15      15
      14      15      15      14      15      15      14      15      15      14
      15      15      14      15      15      14      15      15      14      15
      15      14      15      15      14      15      15      14      15      15
      14      15      15      14      15      15      14      15      15      14
      15      15      14      15      15      14      15      15      14      15
      15      14      15      15      14      15      15      14      15      15
      14      15      15      14      15      15      14      15      15      14
      15      15      14      15      15      14      15      15      14      15
      15      14      15      15      14      15      15      14      15      15
      14      15      15      14      15      15      14      15      15      14
      15      15      14      15      15      14      15      15      14      15
      15      14      15      15      14      15      15      14      15      15
      14      15      15      14      15      15      14      15      15      14
      15      15      14      15      15      14      15      15      14      15
      15      14      15      15      14      15      15      14      15      15
      14      15      15      14      15      15      14      15      15      14
      15      15      14      15      15      14      15      15      14      15
      15      14      15      15      14      15      15      14      15      15
      14      15      15      14      15      15      14      15      15      14
      15      15      14      15      15      14      15      15      14      15
      15      14      15      15      14      15      15      14      15      15
      14      15      15      14      15      15      14      15      15      14
      15      15      14      15      15      14      15      15      14      15
      15      14      15      15      14      15      15      14      15      15
      14      15      15      14      15      15      14      15      15      14
      15      15      14      15      15      14      15      15      14      15
      15      14      15      15      14      15      15      14      15      15
      14      15      15      14      15      15      14      15      15      14
      15      15      14      15      15      14      15      15      14      15
      15      14      15      15      14      15      15      14      15      15
      14      15      15      14      15      15      14      15      15      14
      15      15      14      15      15      14      15      15      14      15
      15      14      15      15      14      15      15      14      15      15
      14      15      15      14      15      15      14      15      15      14
      15      15      14      15      15      14      15      15      14      15
      15      14      15      15      14      15      15      14      15      15
      14      15      15      14      15      15      14      15      15      14
      15      15      14      15      15      14      15      15      14      15
      15      14      15      15      14      15      15      14      15      15
      14      15      15      14      15      15      14      15      15      14
      15      15      14      15      15      14      15      15      14      15
      15      14      15      15      14      15      15      14      15      15
      14      15      15      14      15      15      14      15      15      14
      15      15      14      15      15      14      15      15      14      15
      15      14      15      15      14      15      15      14      15      15
      14      15      15      14      15      15      14      15      15      14
      15      15      14      15      15      14      15      15      14      15
      15      14      15      15      14      15      15      14      15      15
      14      15      15      14      15      15      14      15      15      14
      15      15      14      15      15      14      15      15      14      15
      15      14      15      15      14      15      15      14      15      15
      14      15      15      14      15      15      14      15      15      14
      15      15      14      15      15      14      15      15      14      15
      15      14      15      15      14      15      15      14      15      15
      14      15      15      14      15      15      14      15      15      14
      15      15      14      15      15      14      15      15      14      15
      15      14      15      15      14      15      15      14      15      15
      14      15      15      14      15      15      14      15      15      14
      15      15      14      15      15      14      15      15      14      15
      15      14      15      15      14      15      15      14      15      15
      14      15      15      14      15      15      14      15      15      14
      15      15      14      15      15      14      15      15      14      15
      15      14      15      15      14      15      15      14      15      15
      14      15      15      14      15      15      14      15      15      14
      15      15      14      15      15      14      15      15      14      15
      15      14      15      15      14      15      15      14      15      15
      14      15      15      14      15      15      14      15      15      14
      15      15      14      15      15      14      15      15      14      15
      15      14      15      15      14      15      15      14      15      15
      14      15      15      14      15      15      14      15      15      14
      15      15      14      15      15      14      15      15      14      15
      15      14      15      15      14      15      15      14      15      15
      14      15      15      14      15      15      14      15      15      14
      15      15      14      15      15      14      15      15      14      15
      15      14      15      15      14      15      15      14      15      15
      14      15      15      14      15      15      14      15      15      14
      15      15      14      15      15      14      15      15      14      15
      15      14      15      15      14      15      15      14      15      15
      14      15      15      14      15      15      14      15      15      14
      15      15      14      15      15      14      15      15      14      15
      15      14      15      15      14      15      15      14      15      15
      14      15      15      14      15      15      14      15      15      14
      15      15      14      15      15      14      15      15      14      15
      15      14      15      15      14      15      15      14      15      15
      14      15      15      14      15      15      14      15      15      14
      15      15      14      15      15      14      15      15      14      15
      15      14      15      15      14      15      15      14      15      15
      14      15      15      14      15      15      14      15      15      14
      15      15      14      15      15      14      15      15      14      15
      15      14      15      15      14      15      15      14      15      15
      14      15      15      14      15      15      14      15      15      14
      15      15      14      15      15      14      15      15      14      15
      15      14      15      15      14      15      15      14      15      15
      14      15      15      14      15      15      14      15      15      14
      15      15      14      15      15      14      15      15      14      15
      15      14      15      15      14      15      15      14      15      15
      14      15      15      14      15      15      14      15      15      14
      15      15      14      15      15      14      15      15      14      15
      15      14      15      15      14      15      15      14      15      15
      14      15      15      14      15      15      14      15      15      14
      15      15      14      15      15      14      15      15      14      15
      15      14      15      15      14      15      15      14      15      15
      14      15      15      14      15      15      14      15      15      14
      15      15      14      15      15      14      15      15      14      15
      15      14      15      15      14      15      15      14      15      15
      14      15      15      14      15      15      14      15      15      14
      15      15      14      15      15      14      15      15      14      15
      15      14      15      15      14      15      15      14      15      15
      14      15      15      14      15      15      14      15      15      14
      15      15      14      15      15      14      15      15      14      15
      15      14      15      15      14      15      15      14      15      15
      14      15      15      14      15      15      14      15      15      14
      15      15      14      15      15      14      15      15      14      15
      15      14      15      15      14      15      15      14      15      15
      14      15      15      14      15      15      14      15      15      14
      15      15      14      15      15      14      15      15      14      15
      15      14      15      15      14      15      15      14      15      15
      14      15      15      14      15      15      14      15      15      14
      15      15      14      15      15      14      15      15      14      15
      15      14      15      15      14      15      15      14      15      15
      14      15      15      14      15      15      14      15      15      14
      15      15      14      15      15      14      15      15      14      15
      15      14      15      15      14      15      15      14      15      15
      14      15      15      14      15      15      14      15      15      14
      15      15      14      15      15      14      15      15      14      15
      15      14      15      15      14      15      15      14      15      15
      14      15      15      14      15      15      14      15      15      14
      15      15      14      15      15      14      15      15      14      15
      15      14      15      15      14      15      15      14      15      15
      14      15      15      14      15      15      14      15      15      14
      15      15      14      15      15      14      15      15      14      15
      15      14      15      15      14      15      15      14      15      15
      14      15      15      14      15      15      14      15      15      14
      15      15      14      15      15      14      15      15      14      15
      15      14      15      15      14      15      15      14      15      15
      14      15      15      14      15      15      14      15      15      14
      15      15      14      15      15      14      15      15      14      15
      15      14      15      15      14      15      15      14      15      15
      14      15      15      14      15      15      14      15      15      14
      15      15      14      15      15      14      15      15      14      15
      15      14      15      15      14      15      15      14      15      15
      14      15      15      14      15      15      14      15      15      14
      15      15      14      15      15      14      15      15      14      15
      15      14      15      15      14      15      15      14      15      15
      14      15      15      14      15      15      14      15      15      14
      15      15      14      15      15      14      15      15      14      15
      15      14      15      15      14      15      15      14      15      15
      14      15      15      14      15      15      14      15      15      14
      15      15      14      15      15      14      15      15      14      15
      15      14      15      15      14      15      15      14      15      15
      14      15      15      14      15      15      14      15      15      14
      15      15      14      15      15      14      15      15      14      15
      15      14      15      15      14      15      15      14      15      15
      14      15      15      14      15      15      14      15      15      14
      15      15      14      15      15      14      15      15      14      15
      15      14      15      15      14      15      15      14      15      15
      14      15      15      14      15      15      14      15      15      14
      15      15      14      15      15      14      15      15      14      15
      15      14      15      15      14      15      15      14      15      15
      14      15      15      14      15      15      14      15      15      14
      15      15      14      15      15      14      15      15      14      15
      15      14      15      15      14      15      15      14      15      15
      14      15      15      14      15      15      14      15      15      14
      15      15      14      15      15      14      15      15      14      15
      15      14      15      15      14      15      15      14      15      15
      14      15      15      14      15      15      14      15      15      14
      15      15      14      15      15      14      15      15      14      15
      15      14      15      15      14      15      15      14      15      15
      14      15      15      14      15      15      14      15      15      14
      15      15      14      15      15      14      15      15      14      15
      15      14      15      15      14      15      15      14      15      15
      14      15      15      14      15      15      14      15      15      14
      15      15      14      15      15      14      15      15      14      15
      15      14      15      15      14      15      15      14      15      15
      14      15      15      14      15      15      14      15      15      14
      15      15      14      15      15      14      15      15      14      15
      15      14      15      15      14      15      15      14      15      15
      14      15      15      14      15      15      14      15      15      14
      15      15      14      15      15      14      15      15      14      15
      15      14      15      15      14      15      15      14      15      15
      14      15      15      14      15      15      14      15      15      14
      15      15      14      15      15      14      15      15      14      15
      15      14      15      15      14      15      15      14      15      15
      14      15      15      14      15      15      14      15      15      14
      15      15      14      15      15      14      15      15      14      15
      15      14      15      15      14      15      15      14      15      15
      14      15      15      14      15      15      14      15      15      14
      15      15      14      15      15      14      15      15      14      15
      15      14      15      15      14      15      15      14      15      15
      14      15      15      14      15      15      14      15      15      14
      15      15      14      15      15      14      15      15      14      15
      15      14      15      15      14      15      15      14      15      15
      14      15      15      14      15      15      14      15      15      14
      15      15      14      15      15      14      15      15      14      15
      15      14      15      15      14      15      15      14      15      15
      14      15      15      14      15      15      14      15      15      14
      15      15      14      15      15      14      15      15      14      15
      15      14      15      15      14      15      15      14      15      15
      14      15      15      14      15      15      14      15      15      14
      15      15      14      15      15      14      15      15      14      15
      15      14      15      15      14      15      15      14      15      15
      14      15      15      14      15      15      14      15      15      14
      15      15      14      15      15      14      15      15      14      15
      15      14      15      15      14      15      15      14      15      15
      14      15      15      14      15      15      14      15      15      14
      15      15      14      15      15      14      15      15      14      15
      15      14      15      15      14      15      15      14      15      15
      14      15      15      14      15      15      14      15      15      14
      15      15      14      15      15      14      15      15      14      15
      15      14      15      15      14      15      15      14      15      15
      14      15      15      14      15      15      14      15      15      14
      15      15      14      15      15      14      15      15      14      15
      15      14      15      15      14      15      15      14      15      15
      14      15      15      14      15      15      14      15      15      14
      15      15      14      15      15      14      15      15      14      15
      15      14      15      15      14      15      15      14      15      15
      14      15      15      14      15      15      14      15      15      14
      15      15      14      15      15      14      15      15      14      15
      15      14      15      15      14      15      15      14      15      15
      14      15      15      14      15      15      14      15      15      14
      15      15      14      15      15      14      15      15      14      15
      15      14      15      15      14      15      15      14      15      15
      14      15      15      14      15      15      14      15      15      14
      15      15      14      15      15      14      15      15      14      15
      15      14      15      15      14      15      15      14      15      15
      14      15      15      14      15      15      14      15      15      14
      15      15      14      15      15      14      15      15      14      15
      15      14      15      15      14      15      15      14      15      15
      14      15      15      14      15      15      14      15      15      14
      15      15      14      15      15      14      15      15      14      15
      15      14      15      15      14      15      15      14      15      15
      14      15      15      14      15      15      14      15      15      14
      15      15      14      15      15      14      15      15      14      15
      15      14      15      15      14      15      15      14      15      15
      14      15      15      14      15      15      14      15      15      14
      15      15      14      15      15      14      15      15      14      15
      15      14      15      15      14      15      15      14      15      15
      14      15      15      14      15      15      14      15      15      14
      15      15      14      15      15      14      15      15      14      15
      15      14      15      15      14      15      15      14      15      15
      14      15      15      14      15      15      14      15      15      14
      15      15      14      15      15      14      15      15      14      15
      15      14      15      15      14      15      15      14      15      15
      14      15      15      14      15      15      14      15      15      14
      15      15      14      15      15      14      15      15      14      15
      15      14      15      15      14      15      15      14      15      15
      14      15      15      14      15      15      14      15      15      14
      15      15      14      15      15      14      15      15      14      15
      15      14      15      15      14      15      15      14      15      15
      14      15      15      14      15      15      14      15      15      14
      15      15      14      15      15      14      15      15      14      15
      15      14      15      15      14      15      15      14      15      15
      14      15      15      14      15      15      14      15      15      14
      15      15      14      15      15      14      15      15      14      15
      15      14      15      15      14      15      15      14      15      15
      14      15      15      14      15      15      14      15      15      14
      15      15      14      15      15      14      15      15      14      15
      15      14      15      15      14      15      15      14      15      15
      14      15      15      14      15      15      14      15      15      14
      15      15      14      15      15      14      15      15      14      15
      15      14      15      15      14      15      15      14      15      15
      14      15      15      14      15      15      14      15      15      14
      15      15      14      15      15      14      15      15      14      15
      15      14      15      15      14      15      15      14      15      15
      14      15      15      14      15      15      14      15      15      14
      15      15      14      15      15      14      15      15      14      15
      15      14      15      15      14      15      15      14      15      15
      14      15      15      14      15      15      14      15      15      14
      15      15      14      15      15      14      15      15      14      15
      15      14      15      15      14      15      15      14      15      15
      14      15      15      14      15      15      14      15      15      14
      15      15      14      15      15      14      15      15      14      15
      15      14      15      15      14      15      15      14      15      15
      14      15      15      14      15      15      14      15      15      14
      15      15      14      15      15      14      15      15      14      15
      15      14      15      15      14      15      15      14      15      15
      14      15      15      14      15      15      14      15      15      14
      15      15      14      15      15      14      15      15      14      15
      15      14      15      15      14      15      15      14      15      15
      14      15      15      14      15      15      14      15      15      14
      15      15      14      15      15      14      15      15      14      15
      15      14      15      15      14      15      15      14      15      15
      14      15      15      14      15      15      14      15      15      14
      15      15      14      15      15      14      15      15      14      15
      15      14      15      15      14      15      15      14      15      15
      14      15      15      14      15      15      14      15      15      14
      15      15      14      15      15      14      15      15      14      15
      15      14      15      15      14      15      15      14      15      15
      14      15      15      14      15      15      14      15      15      14
      15      15      14      15      15      14      15      15      14      15
      15      14      15      15      14      15      15      14      15      15
      14      15      15      14      15      15      14      15      15      14
      15      15      14      15      15      14      15      15      14      15
      15      14      15      15      14      15      15      14      15      15
      14      15      15      14      15      15      14      15      15      14
      15      15      14      15      15      14      15      15      14      15
      15      14      15      15      14      15      15      14      15      15
      14      15      15      14      15      15      14      15      15      14
      15      15      14      15      15      14      15      15      14      15
      15      14      15      15      14      15      15      14      15      15
      14      15      15      14      15      15      14      15      15      14
      15      15      14      15      15      14      15      15      14      15
      15      14      15      15      14      15      15      14      15      15
      14      15      15      14      15      15      14      15      15      14
      15      15      14      15      15      14      15      15      14      15
      15      14      15      15      14      15      15      14      15      15
      14      15      15      14      15      15      14      15      15      14
      15      15      14      15      15      14      15      15      14      15
      15      14      15      15      14      15      15      14      15      15
      14      15      15      14      15      15      14      15      15      14
      15      15      14      15      15      14      15      15      14      15
      15      14      15      15      14      15      15      14      15      15
      14      15      15      14      15      15      14      15      15      14
      15      15      14      15      15      14      15      15      14      15
      15      14      15      15      14      15      15      14      15      15
      14      15      15      14      15      15      14      15      15      14
      15      15      14      15      15      14      15      15      14      15
      15      14      15      15      14      15      15      14      15      15
      14      15      15      14      15      15      14      15      15      14
      15      15      14      15      15      14      15      15      14      15
      15      14      15      15      14      15      15      14      15      15
      14      15      15      14      15      15      14      15      15      14
      15      15      14      15      15      14      15      15      14      15
      15      14      15      15      14      15      15      14      15      15
      14      15      15      14      15      15      14      15      15      14
      15      15      14      15      15      14      15      15      14      15
      15      14      15      15      14      15      15      14      15      15
      14      15      15      14      15      15      14      15      15      14
      15      15      14      15      15      14      15      15      14      15
      15      14      15      15      14      15      15      14      15      15
      14      15      15      14      15      15      14      15      15      14
      15      15      14      15      15      14      15      15      14      15
      15      14      15      15      14      15      15      14      15      15
      14      15      15      14      15      15      14      15      15      14
      15      15      14      15      15      14      15      15      14      15
      15      14      15      15      14      15      15      14      15      15
      14      15      15      14      15      15      14      15      15      14
      15      15      14      15      15      14      15      15      14      15
      15      14      15      15      14      15      15      14      15      15
      14      15      15      14      15      15      14      15      15      14
      15      15      14      15      15      14      15      15      14      15
      15      14      15      15      14      15      15      14      15      15
      14      15      15      14      15      15      14      15      15      14
      15      15      14      15      15      14      15      15      14      15
      15      14      15      15      14      15      15      14      15      15
      14      15      15      14      15      15      14      15      15      14
      15      15      14      15      15      14      15      15      14      15
      15      14      15      15      14      15      15      14      15      15
      14      15      15      14      15      15      14      15      15      14
      15      15      14      15      15      14      15      15      14      15
      15      14      15      15      14      15      15      14      15      15
      14      15      15      14      15      15      14      15      15      14
      15      15      14      15      15      14      15      15      14      15
      15      14      15      15      14      15      15      14      15      15
      14      15      15      14      15      15      14      15      15      14
      15      15      14      15      15      14      15      15      14      15
      15      14      15      15      14      15      15      14      15      15
      14      15      15      14      15      15      14      15      15      14
      15      15      14      15      15      14      15      15      14      15
      15      14      15      15      14      15      15      14      15      15
      14      15      15      14      15      15      14      15      15      14
      15      15      14      15      15      14      15      15      14      15
      15      14      15      15      14      15      15      14      15      15
      14      15      15      14      15      15      14      15      15      14
      15      15      14      15      15      14      15      15      14      15
      15      14      15      15      14      15      15      14      15      15
      14      15      15      14      15      15      14      15      15      14
      15      15      14      15      15      14      15      15      14      15
      15      14      15      15      14      15      15      14      15      15
      14      15      15      14      15      15      14      15      15      14
      15      15      14      15      15      14      15      15      14      15
      15      14      15      15      14      15      15      14      15      15
      14      15      15      14      15      15      14      15      15      14
      15      15      14      15      15      14      15      15      14      15
      15      14      15      15      14      15      15      14      15      15
      14      15      15      14      15      15      14      15      15      14
      15      15      14      15      15      14      15      15      14      15
      15      14      15      15      14      15      15      14      15      15
      14      15      15      14      15      15      14      15      15      14
      15      15      14      15      15      14      15      15      14      15
      15      14      15      15      14      15      15      14      15      15
      14      15      15      14      15      15      14      15      15      14
      15      15      14      15      15      14      15      15      14      15
      15      14      15      15      14      15      15      14      15      15
      14      15      15      14      15      15      14      15      15      14
      15      15      14      15      15      14      15      15      14      15
      15      14      15      15      14      15      15      14      15      15
      14      15      15      14      15      15      14      15      15      14
      15      15      14      15      15      14      15      15      14      15
      15      14      15      15      14      15      15      14      15      15
      14      15      15      14      15      15      14      15      15      14
      15      15      14      15      15      14      15      15      14      15
      15      14      15      15      14      15      15      14      15      15
      14      15      15      14      15      15      14      15      15      14
      15      15      14      15      15      14      15      15      14      15
      15      14      15      15      14      15      15      14      15      15
      14      15      15      14      15      15      14      15      15      14
      15      15      14      15      15      14      15      15      14      15
      15      14      15      15      14      15      15      14      15      15
      14      15      15      14      15      15      14      15      15      14
      15      15      14      15      15      14      15      15      14      15
      15      14      15      15      14      15      15      14      15      15
      14      15      15      14      15      15      14      15      15      14
      15      15      14      15      15      14      15      15      14      15
      15      14      15      15      14      15      15      14      15      15
      14      15      15      14      15      15      14      15      15      14
      15      15      14      15      15      14      15      15      14      15
      15      14      15      15      14      15      15      14      15      15
      14      15      15      14      15      15      14      15      15      14
      15      15      14      15      15      14      15      15      14      15
      15      14      15      15      14      15      15      14      15      15
      14      15      15      14      15      15      14      15      15      14
      15      15      14      15      15      14      15      15      14      15
      15      14      15      15      14      15      15      14      15      15
      14      15      15      14      15      15      14      15      15      14
      15      15      14      15      15      14      15      15      14      15
      15      14      15      15      14      15      15      14      15      15
      14      15      15      14      15      15      14      15      15      14
      15      15      14      15      15      14      15      15      14      15
      15      14      15      15      14      15      15      14      15      15
      14      15      15      14      15      15      14      15      15      14
      15      15      14      15      15      14      15      15      14      15
      15      14      15      15      14      15      15      14      15      15
      14      15      15      14      15      15      14      15      15      14
      15      15      14      15      15      14      15      15      14      15
      15      14      15      15      14      15      15      14      15      15
      14      15      15      14      15      15      14      15      15      14
      15      15      14      15      15      14      15      15      14      15
      15      14      15      15      14      15      15      14      15      15
      14      15      15      14      15      15      14      15      15      14
      15      15      14      15      15      14      15      15      14      15
      15      14      15      15      14      15      15      14      15      15
      14      15      15      14      15      15      14      15      15      14
      15      15      14      15      15      14      15      15      14      15
      15      14      15      15      14      15      15      14      15      15
      14      15      15      14      15      15      14      15      15      14
      15      15      14      15      15      14      15      15      14      15
      15      14      15      15      14      15      15      14      15      15
      14      15      15      14      15      15      14      15      15      14
      15      15      14      15      15      14      15      15      14      15
      15      14      15      15      14      15      15      14      15      15
      14      15      15      14      15      15      14      15      15      14
      15      15      14      15      15      14      15      15      14      15
      15      14      15      15      14      15      15      14      15      15
      14      15      15      14      15      15      14      15      15      14
      15      15      14      15      15      14      15      15      14      15
      15      14      15      15      14      15      15      14      15      15
      14      15      15      14      15      15      14      15      15      14
      15      15      14      15      15      14      15      15      14      15
      15      14      15      15      14      15      15      14      15      15
      14      15      15      14      15      15      14      15      15      14
      15      15      14      15      15      14      15      15      14      15
      15      14      15      15      14      15      15      14      15      15
      14      15      15      14      15      15      14      15      15      14
      15      15      14      15      15      14      15      15      14      15
      15      14      15      15      14      15      15      14      15      15
      14      15      15      14      15      15      14      15      15      14
      15      15      14      15      15      14      15      15      14      15
      15      14      15      15      14      15      15      14      15      15
      14      15      15      14      15      15      14      15      15      14
      15      15      14      15      15      14      15      15      14      15
      15      14      15      15      14      15      15      14      15      15
      14      15      15      14      15      15      14      15      15      14
      15      15      14      15      15      14      15      15      14      15
      15      14      15      15      14      15      15      14      15      15
      14      15      15      14      15      15      14      15      15      14
      15      15      14      15      15      14      15      15      14      15
      15      14      15      15      14      15      15      14      15      15
      14      15      15      14      15      15      14      15      15      14
      15      15      14      15      15      14      15      15      14      15
      15      14      15      15      14      15      15      14      15      15
      14      15      15      14      15      15      14      15      15      14
      15      15      14      15      15      14      15      15      14      15
      15      14      15      15      14      15      15      14      15      15
      14      15      15      14      15      15      14      15      15      14
      15      15      14      15      15      14      15      15
%FLAG NUMBER_EXCLUDED_ATOMS                                                     
%FORMAT(10I8)                                                                   
       9       6       5       4       7       4       3       7       3      10
       4      12       7      12       5       4      10       8       4       7
       3       6       4       1       3       2       1       1       7       3
      10       4      12       7       8       5       4       3       1       1
      10       3      14      11       6       5       8       5       4       7
       4       3       6       3       7       3      10       4      13       7
      11       6       5       6       4       3       2       1       1       7
       3      10       4      14       7      10       7       6       3       2
       1       2       1       7       3       7       4       7       4       3
       7       3      10       4      14       7      10       7       6       3
       2       1       2       1       7       3      10       4      12       7
      12       5       4      11       7       4       7       3       8       7
       4       6       3       4       3       2       1       1       7       3
       7       4       5       4       3       2       1       1       1       1
       2       1       1       2       1       1       2       1       1       2
       1       1       2       1       1       2       1       1       2       1
       1       2       1       1       2       1       1       2       1       1
       2       1       1       2       1       1       2       1       1       2
       1       1       2       1       1       2       1       1       2       1
       1       2       1       1       2       1       1       2       1       1
       2       1       1       2       1       1       2       1       1       2
       1       1       2       1       1       2       1       1       2       1
       1       2       1       1       2       1       1       2       1       1
       2       1       1       2       1       1       2       1       1       2
       1       1       2       1       1       2       1       1       2       1
       1       2       1       1       2       1       1       2       1       1
       2       1       1       2       1       1       2       1       1       2
       1       1       2       1       1       2       1       1       2       1
       1       2       1       1       2       1       1       2       1       1
       2       1       1       2       1       1       2       1       1       2
       1       1       2       1       1       2       1       1       2       1
       1       2       1       1       2       1       1       2       1       1
       2       1       1       2       1       1       2       1       1       2
       1       1       2       1       1       2       1       1       2       1
       1       2       1       1       2       1       1       2       1       1
       2       1       1       2       1       1       2       1       1       2
       1       1       2       1       1       2       1       1       2       1
       1       2       1       1       2       1       1       2       1       1
       2       1       1       2       1       1       2       1       1       2
       1       1       2       1       1       2       1       1       2       1
       1       2       1       1       2       1       1       2       1       1
       2       1       1       2       1       1       2       1       1       2
       1       1       2       1       1       2       1       1       2       1
       1       2       1       1       2       1       1       2       1       1
       2       1       1       2       1       1       2       1       1       2
       1       1       2       1       1       2       1       1       2       1
       1       2       1       1       2       1       1       2       1       1
       2       1       1       2       1       1       2       1       1       2
       1       1       2       1       1       2       1       1       2       1
       1       2       1       1       2       1       1       2       1       1
       2       1       1       2       1       1       2       1       1       2
       1       1       2       1       1       2       1       1       2       1
       1       2       1       1       2       1       1       2       1       1
       2       1       1       2       1       1       2       1       1       2
       1       1       2       1       1       2       1       1       2       1
       1       2       1       1       2       1       1       2       1       1
       2       1       1       2       1       1       2       1       1       2
       1       1       2       1       1       2       1       1       2       1
       1       2       1       1       2       1       1       2       1       1
       2       1       1       2       1       1       2       1       1       2
       1       1       2       1       1       2       1       1       2       1
       1       2       1       1       2       1       1       2       1       1
       2       1       1       2       1       1       2       1       1       2
       1       1       2       1       1       2       1       1       2       1
       1       2       1       1       2       1       1       2       1       1
       2       1       1       2       1       1       2       1       1       2
       1       1       2       1       1       2       1       1       2       1
       1       2       1       1       2       1       1       2       1       1
       2       1       1       2       1       1       2       1       1       2
       1       1       2       1       1       2       1       1       2       1
       1       2       1       1       2       1       1       2       1       1
       2       1       1       2       1       1       2       1       1       2
       1       1       2       1       1       2       1       1       2       1
       1       2       1       1       2       1       1       2       1       1
       2       1       1       2       1       1       2       1       1       2
       1       1       2       1       1       2       1       1       2       1
       1       2       1       1       2       1       1       2       1       1
       2       1       1       2       1       1       2       1       1       2
       1       1       2       1       1       2       1       1       2       1
       1       2       1       1       2       1       1       2       1       1
       2       1       1       2       1       1       2       1       1       2
       1       1       2       1       1       2       1       1       2       1
       1       2       1       1       2       1       1       2       1       1
       2       1       1       2       1       1       2       1       1       2
       1       1       2       1       1       2       1       1       2       1
       1       2       1       1       2       1       1       2       1       1
       2       1       1       2       1       1       2       1       1       2
       1       1       2       1       1       2       1       1       2       1
       1       2       1       1       2       1       1       2       1       1
       2       1       1       2       1       1       2       1       1       2
       1       1       2       1       1       2       1       1       2       1
       1       2       1       1       2       1       1       2       1       1
       2       1       1       2       1       1       2       1       1       2
       1       1       2       1       1       2       1       1       2       1
       1       2       1       1       2       1       1       2       1       1
       2       1       1       2       1       1       2       1       1       2
       1       1       2       1       1       2       1       1       2       1
       1       2       1       1       2       1       1       2       1       1
       2       1       1       2       1       1       2       1       1       2
       1       1       2       1       1       2       1       1       2       1
       1       2       1       1       2       1       1       2       1       1
       2       1       1       2       1       1       2       1       1       2
       1       1       2       1       1       2       1       1       2       1
       1       2       1       1       2       1       1       2       1       1
       2       1       1       2       1       1       2       1       1       2
       1       1       2       1       1       2       1       1       2       1
       1       2       1       1       2       1       1       2       1       1
       2       1       1       2       1       1       2       1       1       2
       1       1       2       1       1       2       1       1       2       1
       1       2       1       1       2       1       1       2       1       1
       2       1       1       2       1       1       2       1       1       2
       1       1       2       1       1       2       1       1       2       1
       1       2       1       1       2       1       1       2       1       1
       2       1       1       2       1       1       2       1       1       2
       1       1       2       1       1       2       1       1       2       1
       1       2       1       1       2       1       1       2       1       1
       2       1       1       2       1       1       2       1       1       2
       1       1       2       1       1       2       1       1       2       1
       1       2       1       1       2       1       1       2       1       1
       2       1       1       2       1       1       2       1       1       2
       1       1       2       1       1       2       1       1       2       1
       1       2       1       1       2       1       1       2       1       1
       2       1       1       2       1       1       2       1       1       2
       1       1       2       1       1       2       1       1       2       1
       1       2       1       1       2       1       1       2       1       1
       2       1       1       2       1       1       2       1       1       2
       1       1       2       1       1       2       1       1       2       1
       1       2       1       1       2       1       1       2       1       1
       2       1       1       2       1       1       2       1       1       2
       1       1       2       1       1       2       1       1       2       1
       1       2       1       1       2       1       1       2       1       1
       2       1       1       2       1       1       2       1       1       2
       1       1       2       1       1       2       1       1       2       1
       1       2       1       1       2       1       1       2       1       1
       2       1       1       2       1       1       2       1       1       2
       1       1       2       1       1       2       1       1       2       1
       1       2       1       1       2       1       1       2       1       1
       2       1       1       2       1       1       2       1       1       2
       1       1       2       1       1       2       1       1       2       1
       1       2       1       1       2       1       1       2       1       1
       2       1       1       2       1       1       2       1       1       2
       1       1       2       1       1       2       1       1       2       1
       1       2       1       1       2       1       1       2       1       1
       2       1       1       2       1       1       2       1       1       2
       1       1       2       1       1       2       1       1       2       1
       1       2       1       1       2       1       1       2       1       1
       2       1       1       2       1       1       2       1       1       2
       1       1       2       1       1       2       1       1       2       1
       1       2       1       1       2       1       1       2       1       1
       2       1       1       2       1       1       2       1       1       2
       1       1       2       1       1       2       1       1       2       1
       1       2       1       1       2       1       1       2       1       1
       2       1       1       2       1       1       2       1       1       2
       1       1       2       1       1       2       1       1       2       1
       1       2       1       1       2       1       1       2       1       1
       2       1       1       2       1       1       2       1       1       2
       1       1       2       1       1       2       1       1       2       1
       1       2       1       1       2       1       1       2       1       1
       2       1       1       2       1       1       2       1       1       2
       1       1       2       1       1       2       1       1       2       1
       1       2       1       1       2       1       1       2       1       1
       2       1       1       2       1       1       2       1       1       2
       1       1       2       1       1       2       1       1       2       1
       1       2       1       1       2       1       1       2       1       1
       2       1       1       2       1       1       2       1       1       2
       1       1       2       1       1       2       1       1       2       1
       1       2       1       1       2       1       1       2       1       1
       2       1       1       2       1       1       2       1       1       2
       1       1       2       1       1       2       1       1       2       1
       1       2       1       1       2       1       1       2       1       1
       2       1       1       2       1       1       2       1       1       2
       1       1       2       1       1       2       1       1       2       1
       1       2       1       1       2       1       1       2       1       1
       2       1       1       2       1       1       2       1       1       2
       1       1       2       1       1       2       1       1       2       1
       1       2       1       1       2       1       1       2       1       1
       2       1       1       2       1       1       2       1       1       2
       1       1       2       1       1       2       1       1       2       1
       1       2       1       1       2       1       1       2       1       1
       2       1       1       2       1       1       2       1       1       2
       1       1       2       1       1       2       1       1       2       1
       1       2       1       1       2       1       1       2       1       1
       2       1       1       2       1       1       2       1       1       2
       1       1       2       1       1       2       1       1       2       1
       1       2       1       1       2       1       1       2       1       1
       2       1       1       2       1       1       2       1       1       2
       1       1       2       1       1       2       1       1       2       1
       1       2       1       1       2       1       1       2       1       1
       2       1       1       2       1       1       2       1       1       2
       1       1       2       1       1       2       1       1       2       1
       1       2       1       1       2       1       1       2       1       1
       2       1       1       2       1       1       2       1       1       2
       1       1       2       1       1       2       1       1       2       1
       1       2       1       1       2       1       1       2       1       1
       2       1       1       2       1       1       2       1       1       2
       1       1       2       1       1       2       1       1       2       1
       1       2       1       1       2       1       1       2       1       1
       2       1       1       2       1       1       2       1       1       2
       1       1       2       1       1       2       1       1       2       1
       1       2       1       1       2       1       1       2       1       1
       2       1       1       2       1       1       2       1       1       2
       1       1       2       1       1       2       1       1       2       1
       1       2       1       1       2       1       1       2       1       1
       2       1       1       2       1       1       2       1       1       2
       1       1       2       1       1       2       1       1       2       1
       1       2       1       1       2       1       1       2       1       1
       2       1       1       2       1       1       2       1       1       2
       1       1       2       1       1       2       1       1       2       1
       1       2       1       1       2       1       1       2       1       1
       2       1       1       2       1       1       2       1       1       2
       1       1       2       1       1       2       1       1       2       1
       1       2       1       1       2       1       1       2       1       1
       2       1       1       2       1       1       2       1       1       2
       1       1       2       1       1       2       1       1       2       1
       1       2       1       1       2       1       1       2       1       1
       2       1       1       2       1       1       2       1       1       2
       1       1       2       1       1       2       1       1       2       1
       1       2       1       1       2       1       1       2       1       1
       2       1       1       2       1       1       2       1       1       2
       1       1       2       1       1       2       1       1       2       1
       1       2       1       1       2       1       1       2       1       1
       2       1       1       2       1       1       2       1       1       2
       1       1       2       1       1       2       1       1       2       1
       1       2       1       1       2       1       1       2       1       1
       2       1       1       2       1       1       2       1       1       2
       1       1       2       1       1       2       1       1       2       1
       1       2       1       1       2       1       1       2       1       1
       2       1       1       2       1       1       2       1       1       2
       1       1       2       1       1       2       1       1       2       1
       1       2       1       1       2       1       1       2       1       1
       2       1       1       2       1       1       2       1       1       2
       1       1       2       1       1       2       1       1       2       1
       1       2       1       1       2       1       1       2       1       1
       2       1       1       2       1       1       2       1       1       2
       1       1       2       1       1       2       1       1       2       1
       1       2       1       1       2       1       1       2       1       1
       2       1       1       2       1       1       2       1       1       2
       1       1       2       1       1       2       1       1       2       1
       1       2       1       1       2       1       1       2       1       1
       2       1       1       2       1       1       2       1       1       2
       1       1       2       1       1       2       1       1       2       1
       1       2       1       1       2       1       1       2       1       1
       2       1       1       2       1       1       2       1       1       2
       1       1       2       1       1       2       1       1       2       1
       1       2       1       1       2       1       1       2       1       1
       2       1       1       2       1       1       2       1       1       2
       1       1       2       1       1       2       1       1       2       1
       1       2       1       1       2       1       1       2       1       1
       2       1       1       2       1       1       2       1       1       2
       1       1       2       1       1       2       1       1       2       1
       1       2       1       1       2       1       1       2       1       1
       2       1       1       2       1       1       2       1       1       2
       1       1       2       1       1       2       1       1       2       1
       1       2       1       1       2       1       1       2       1       1
       2       1       1       2       1       1       2       1       1       2
       1       1       2       1       1       2       1       1       2       1
       1       2       1       1       2       1       1       2       1       1
       2       1       1       2       1       1       2       1       1       2
       1       1       2       1       1       2       1       1       2       1
       1       2       1       1       2       1       1       2       1       1
       2       1       1       2       1       1       2       1       1       2
       1       1       2       1       1       2       1       1       2       1
       1       2       1       1       2       1       1       2       1       1
       2       1       1       2       1       1       2       1       1       2
       1       1       2       1       1       2       1       1       2       1
       1       2       1       1       2       1       1       2       1       1
       2       1       1       2       1       1       2       1       1       2
       1       1       2       1       1       2       1       1       2       1
       1       2       1       1       2       1       1       2       1       1
       2       1       1       2       1       1       2       1       1       2
       1       1       2       1       1       2       1       1       2       1
       1       2       1       1       2       1       1       2       1       1
       2       1       1       2       1       1       2       1       1       2
       1       1       2       1       1       2       1       1       2       1
       1       2       1       1       2       1       1       2       1       1
       2       1       1       2       1       1       2       1       1       2
       1       1       2       1       1       2       1       1       2       1
       1       2       1       1       2       1       1       2       1       1
       2       1       1       2       1       1       2       1       1       2
       1       1       2       1       1       2       1       1       2       1
       1       2       1       1       2       1       1       2       1       1
       2       1       1       2       1       1       2       1       1       2
       1       1       2       1       1       2       1       1       2       1
       1       2       1       1       2       1       1       2       1       1
       2       1       1       2       1       1       2       1       1       2
       1       1       2       1       1       2       1       1       2       1
       1       2       1       1       2       1       1       2       1       1
       2       1       1       2       1       1       2       1       1       2
       1       1       2       1       1       2       1       1       2       1
       1       2       1       1       2       1       1       2       1       1
       2       1       1       2       1       1       2       1       1       2
       1       1       2       1       1       2       1       1       2       1
       1       2       1       1       2       1       1       2       1       1
       2       1       1       2       1       1       2       1       1       2
       1       1       2       1       1       2       1       1       2       1
       1       2       1       1       2       1       1       2       1       1
       2       1       1       2       1       1       2       1       1       2
       1       1       2       1       1       2       1       1       2       1
       1       2       1       1       2       1       1       2       1       1
       2       1       1       2       1       1       2       1       1       2
       1       1       2       1       1       2       1       1       2       1
       1       2       1       1       2       1       1       2       1       1
       2       1       1       2       1       1       2       1       1       2
       1       1       2       1       1       2       1       1       2       1
       1       2       1       1       2       1       1       2       1       1
       2       1       1       2       1       1       2       1       1       2
       1       1       2       1       1       2       1       1       2       1
       1       2       1       1       2       1       1       2       1       1
       2       1       1       2       1       1       2       1       1       2
       1       1       2       1       1       2       1       1       2       1
       1       2       1       1       2       1       1       2       1       1
       2       1       1       2       1       1       2       1       1       2
       1       1       2       1       1       2       1       1       2       1
       1       2       1       1       2       1       1       2       1       1
       2       1       1       2       1       1       2       1       1       2
       1       1       2       1       1       2       1       1       2       1
       1       2       1       1       2       1       1       2       1       1
       2       1       1       2       1       1       2       1       1       2
       1       1       2       1       1       2       1       1       2       1
       1       2       1       1       2       1       1       2       1       1
       2       1       1       2       1       1       2       1       1       2
       1       1       2       1       1       2       1       1       2       1
       1       2       1       1       2       1       1       2       1       1
       2       1       1       2       1       1       2       1       1       2
       1       1       2       1       1       2       1       1       2       1
       1       2       1       1       2       1       1       2       1       1
       2       1       1       2       1       1       2       1       1       2
       1       1       2       1       1       2       1       1       2       1
       1       2       1       1       2       1       1       2       1       1
       2       1       1       2       1       1       2       1       1       2
       1       1       2       1       1       2       1       1       2       1
       1       2       1       1       2       1       1       2       1       1
       2       1       1       2       1       1       2       1       1       2
       1       1       2       1       1       2       1       1       2       1
       1       2       1       1       2       1       1       2       1       1
       2       1       1       2       1       1       2       1       1       2
       1       1       2       1       1       2       1       1       2       1
       1       2       1       1       2       1       1       2       1       1
       2       1       1       2       1       1       2       1       1       2
       1       1       2       1       1       2       1       1       2       1
       1       2       1       1       2       1       1       2       1       1
       2       1       1       2       1       1       2       1       1       2
       1       1       2       1       1       2       1       1       2       1
       1       2       1       1       2       1       1       2       1       1
       2       1       1       2       1       1       2       1       1       2
       1       1       2       1       1       2       1       1       2       1
       1       2       1       1       2       1       1       2       1       1
       2       1       1       2       1       1       2       1       1       2
       1       1       2       1       1       2       1       1       2       1
       1       2       1       1       2       1       1       2       1       1
       2       1       1       2       1       1       2       1       1       2
       1       1       2       1       1       2       1       1       2       1
       1       2       1       1       2       1       1       2       1       1
       2       1       1       2       1       1       2       1       1       2
       1       1       2       1       1       2       1       1       2       1
       1       2       1       1       2       1       1       2       1       1
       2       1       1       2       1       1       2       1       1       2
       1       1       2       1       1       2       1       1       2       1
       1       2       1       1       2       1       1       2       1       1
       2       1       1       2       1       1       2       1       1       2
       1       1       2       1       1       2       1       1       2       1
       1       2       1       1       2       1       1       2       1       1
       2       1       1       2       1       1       2       1       1       2
       1       1       2       1       1       2       1       1       2       1
       1       2       1       1       2       1       1       2       1       1
       2       1       1       2       1       1       2       1       1       2
       1       1       2       1       1       2       1       1       2       1
       1       2       1       1       2       1       1       2       1       1
       2       1       1       2       1       1       2       1       1       2
       1       1       2       1       1       2       1       1       2       1
       1       2       1       1       2       1       1       2       1       1
       2       1       1       2       1       1       2       1       1       2
       1       1       2       1       1       2       1       1       2       1
       1       2       1       1       2       1       1       2       1       1
       2       1       1       2       1       1       2       1       1       2
       1       1       2       1       1       2       1       1       2       1
       1       2       1       1       2       1       1       2       1       1
       2       1       1       2       1       1       2       1       1       2
       1       1       2       1       1       2       1       1       2       1
       1       2       1       1       2       1       1       2       1       1
       2       1       1       2       1       1       2       1       1       2
       1       1       2       1       1       2       1       1       2       1
       1       2       1       1       2       1       1       2       1       1
       2       1       1       2       1       1       2       1       1       2
       1       1       2       1       1       2       1       1       2       1
       1       2       1       1       2       1       1       2       1       1
       2       1       1       2       1       1       2       1       1       2
       1       1       2       1       1       2       1       1       2       1
       1       2       1       1       2       1       1       2       1       1
       2       1       1       2       1       1       2       1       1       2
       1       1       2       1       1       2       1       1       2       1
       1       2       1       1       2       1       1       2       1       1
       2       1       1       2       1       1       2       1       1       2
       1       1       2       1       1       2       1       1       2       1
       1       2       1       1       2       1       1       2       1       1
       2       1       1       2       1       1       2       1       1       2
       1       1       2       1       1       2       1       1       2       1
       1       2       1       1       2       1       1       2       1       1
       2       1       1       2       1       1       2       1       1       2
       1       1       2       1       1       2       1       1       2       1
       1       2       1       1       2       1       1       2       1       1
       2       1       1       2       1       1       2       1       1       2
       1       1       2       1       1       2       1       1       2       1
       1       2       1       1       2       1       1       2       1       1
       2       1       1       2       1       1       2       1       1       2
       1       1       2       1       1       2       1       1       2       1
       1       2       1       1       2       1       1       2       1       1
       2       1       1       2       1       1       2       1       1       2
       1       1       2       1       1       2       1       1       2       1
       1       2       1       1       2       1       1       2       1       1
       2       1       1       2       1       1       2       1       1       2
       1       1       2       1       1       2       1       1       2       1
       1       2       1       1       2       1       1       2       1       1
       2       1       1       2       1       1       2       1       1       2
       1       1       2       1       1       2       1       1       2       1
       1       2       1       1       2       1       1       2       1       1
       2       1       1       2       1       1       2       1       1       2
       1       1       2       1       1       2       1       1       2       1
       1       2       1       1       2       1       1       2       1       1
       2       1       1       2       1       1       2       1       1       2
       1       1       2       1       1       2       1       1       2       1
       1       2       1       1       2       1       1       2       1       1
       2       1       1       2       1       1       2       1       1       2
       1       1       2       1       1       2       1       1       2       1
       1       2       1       1       2       1       1       2       1       1
       2       1       1       2       1       1       2       1       1       2
       1       1       2       1       1       2       1       1       2       1
       1       2       1       1       2       1       1       2       1       1
       2       1       1       2       1       1       2       1       1       2
       1       1       2       1       1       2       1       1       2       1
       1       2       1       1       2       1       1       2       1       1
       2       1       1       2       1       1       2       1       1       2
       1       1       2       1       1       2       1       1       2       1
       1       2       1       1       2       1       1       2       1       1
       2       1       1       2       1       1       2       1       1       2
       1       1       2       1       1       2       1       1       2       1
       1       2       1       1       2       1       1       2       1       1
       2       1       1       2       1       1       2       1       1       2
       1       1       2       1       1       2       1       1       2       1
       1       2       1       1       2       1       1       2       1       1
       2       1       1       2       1       1       2       1       1       2
       1       1       2       1       1       2       1       1       2       1
       1       2       1       1       2       1       1       2       1       1
       2       1       1       2       1       1       2       1       1       2
       1       1       2       1       1       2       1       1       2       1
       1       2       1       1       2       1       1       2       1       1
       2       1       1       2       1       1       2       1       1       2
       1       1       2       1       1       2       1       1       2       1
       1       2       1       1       2       1       1       2       1       1
       2       1       1       2       1       1       2       1       1       2
       1       1       2       1       1       2       1       1       2       1
       1       2       1       1       2       1       1       2       1       1
       2       1       1       2       1       1       2       1       1       2
       1       1       2       1       1       2       1       1       2       1
       1       2       1       1       2       1       1       2       1       1
       2       1       1       2       1       1       2       1       1       2
       1       1       2       1       1       2       1       1       2       1
       1       2       1       1       2       1       1       2       1       1
       2       1       1       2       1       1       2       1       1       2
       1       1       2       1       1       2       1       1       2       1
       1       2       1       1       2       1       1       2       1       1
       2       1       1       2       1       1       2       1       1       2
       1       1       2       1       1       2       1       1       2       1
       1       2       1       1       2       1       1       2       1       1
       2       1       1       2       1       1       2       1       1       2
       1       1       2       1       1       2       1       1       2       1
       1       2       1       1       2       1       1       2       1       1
       2       1       1       2       1       1       2       1       1       2
       1       1       2       1       1       2       1       1       2       1
       1       2       1       1       2       1       1       2       1       1
       2       1       1       2       1       1       2       1       1       2
       1       1       2       1       1       2       1       1       2       1
       1       2       1       1       2       1       1       2       1       1
       2       1       1       2       1       1       2       1       1       2
       1       1       2       1       1       2       1       1       2       1
       1       2       1       1       2       1       1       2       1       1
       2       1       1       2       1       1       2       1       1       2
       1       1       2       1       1       2       1       1       2       1
       1       2       1       1       2       1       1       2       1       1
       2       1       1       2       1       1       2       1       1       2
       1       1       2       1       1       2       1       1       2       1
       1       2       1       1       2       1       1       2       1       1
       2       1       1       2       1       1       2       1       1       2
       1       1       2       1       1       2       1       1       2       1
       1       2       1       1       2       1       1       2       1       1
       2       1       1       2       1       1       2       1       1       2
       1       1       2       1       1       2       1       1       2       1
       1       2       1       1       2       1       1       2       1       1
       2       1       1       2       1       1       2       1       1       2
       1       1       2       1       1       2       1       1       2       1
       1       2       1       1       2       1       1       2       1       1
       2       1       1       2       1       1       2       1       1       2
       1       1       2       1       1       2       1       1       2       1
       1       2       1       1       2       1       1       2       1       1
       2       1       1       2       1       1       2       1       1       2
       1       1       2       1       1       2       1       1       2       1
       1       2       1       1       2       1       1       2       1       1
       2       1       1       2       1       1       2       1       1       2
       1       1       2       1       1       2       1       1       2       1
       1       2       1       1       2       1       1       2       1       1
       2       1       1       2       1       1       2       1       1       2
       1       1       2       1       1       2       1       1       2       1
       1       2       1       1       2       1       1       2       1       1
       2       1       1       2       1       1       2       1       1       2
       1       1       2       1       1       2       1       1       2       1
       1       2       1       1       2       1       1       2       1       1
       2       1       1       2       1       1       2       1       1       2
       1       1       2       1       1       2       1       1       2       1
       1       2       1       1       2       1       1       2       1       1
       2       1       1       2       1       1       2       1       1       2
       1       1       2       1       1       2       1       1       2       1
       1       2       1       1       2       1       1       2       1       1
       2       1       1       2       1       1       2       1       1       2
       1       1       2       1       1       2       1       1       2       1
       1       2       1       1       2       1       1       2       1       1
       2       1       1       2       1       1       2       1       1       2
       1       1       2       1       1       2       1       1       2       1
       1       2       1       1       2       1       1       2       1       1
       2       1       1       2       1       1       2       1       1       2
       1       1       2       1       1       2       1       1       2       1
       1       2       1       1       2       1       1       2       1       1
       2       1       1       2       1       1       2       1       1       2
       1       1       2       1       1       2       1       1       2       1
       1       2       1       1       2       1       1       2       1       1
       2       1       1       2       1       1       2       1       1       2
       1       1       2       1       1       2       1       1       2       1
       1       2       1       1       2       1       1       2       1       1
       2       1       1       2       1       1       2       1       1       2
       1       1       2       1       1       2       1       1       2       1
       1       2       1       1       2       1       1       2       1       1
       2       1       1       2       1       1       2       1       1       2
       1       1       2       1       1       2       1       1       2       1
       1       2       1       1       2       1       1       2       1       1
       2       1       1       2       1       1       2       1       1       2
       1       1       2       1       1       2       1       1       2       1
       1       2       1       1       2       1       1       2       1       1
       2       1       1       2       1       1       2       1       1       2
       1       1       2       1       1       2       1       1       2       1
       1       2       1       1       2       1       1       2       1       1
       2       1       1       2       1       1       2       1       1       2
       1       1       2       1       1       2       1       1       2       1
       1       2       1       1       2       1       1       2       1       1
       2       1       1       2       1       1       2       1       1       2
       1       1       2       1       1       2       1       1       2       1
       1       2       1       1       2       1       1       2       1       1
       2       1       1       2       1       1       2       1       1       2
       1       1       2       1       1       2       1       1       2       1
       1       2       1       1       2       1       1       2       1       1
       2       1       1       2       1       1       2       1       1       2
       1       1       2       1       1       2       1       1       2       1
       1       2       1       1       2       1       1       2       1       1
       2       1       1       2       1       1       2       1       1       2
       1       1       2       1       1       2       1       1       2       1
       1       2       1       1       2       1       1       2       1       1
       2       1       1       2       1       1       2       1       1       2
       1       1       2       1       1       2       1       1       2       1
       1       2       1       1       2       1       1       2       1       1
       2       1       1       2       1       1       2       1       1       2
       1       1       2       1       1       2       1       1       2       1
       1       2       1       1       2       1       1       2       1       1
       2       1       1       2       1       1       2       1       1       2
       1       1       2       1       1       2       1       1       2       1
       1       2       1       1       2       1       1       2       1       1
       2       1       1       2       1       1       2       1       1       2
       1       1       2       1       1       2       1       1       2       1
       1       2       1       1       2       1       1       2       1       1
       2       1       1       2       1       1       2       1       1       2
       1       1       2       1       1       2       1       1       2       1
       1       2       1       1       2       1       1       2       1       1
       2       1       1       2       1       1       2       1       1       2
       1       1       2       1       1       2       1       1       2       1
       1       2       1       1       2       1       1       2       1       1
       2       1       1       2       1       1       2       1       1       2
       1       1       2       1       1       2       1       1       2       1
       1       2       1       1       2       1       1       2       1       1
       2       1       1       2       1       1       2       1       1       2
       1       1       2       1       1       2       1       1       2       1
       1       2       1       1       2       1       1       2       1       1
       2       1       1       2       1       1       2       1       1       2
       1       1       2       1       1       2       1       1       2       1
       1       2       1       1       2       1       1       2       1       1
       2       1       1       2       1       1       2       1       1       2
       1       1       2       1       1       2       1       1       2       1
       1       2       1       1       2       1       1       2       1       1
       2       1       1       2       1       1       2       1       1       2
       1       1       2       1       1       2       1       1       2       1
       1       2       1       1       2       1       1       2       1       1
       2       1       1       2       1       1       2       1       1       2
       1       1       2       1       1       2       1       1       2       1
       1       2       1       1       2       1       1       2       1       1
       2       1       1       2       1       1       2       1       1       2
       1       1       2       1       1       2       1       1       2       1
       1       2       1       1       2       1       1       2       1       1
       2       1       1       2       1       1       2       1       1       2
       1       1       2       1       1       2       1       1       2       1
       1       2       1       1       2       1       1       2       1       1
       2       1       1       2       1       1       2       1       1       2
       1       1       2       1       1       2       1       1       2       1
       1       2       1       1       2       1       1       2       1       1
       2       1       1       2       1       1       2       1       1       2
       1       1       2       1       1       2       1       1       2       1
       1       2       1       1       2       1       1       2       1       1
       2       1       1       2       1       1       2       1       1       2
       1       1       2       1       1       2       1       1       2       1
       1       2       1       1       2       1       1       2       1       1
       2       1       1       2       1       1       2       1       1       2
       1       1       2       1       1       2       1       1       2       1
       1       2       1       1       2       1       1       2       1       1
       2       1       1       2       1       1       2       1       1       2
       1       1       2       1       1       2       1       1       2       1
       1       2       1       1       2       1       1       2       1       1
       2       1       1       2       1       1       2       1       1       2
       1       1       2       1       1       2       1       1       2       1
       1       2       1       1       2       1       1       2       1       1
       2       1       1       2       1       1       2       1       1       2
       1       1       2       1       1       2       1       1       2       1
       1       2       1       1       2       1       1       2       1       1
       2       1       1       2       1       1       2       1       1       2
       1       1       2       1       1       2       1       1       2       1
       1       2       1       1       2       1       1       2       1       1
       2       1       1       2       1       1       2       1       1       2
       1       1       2       1       1       2       1       1       2       1
       1       2       1       1       2       1       1       2       1       1
       2       1       1       2       1       1       2       1       1       2
       1       1       2       1       1       2       1       1       2       1
       1       2       1       1       2       1       1       2       1       1
       2       1       1       2       1       1       2       1       1       2
       1       1       2       1       1       2       1       1       2       1
       1       2       1       1       2       1       1       2       1       1
       2       1       1       2       1       1       2       1       1       2
       1       1       2       1       1       2       1       1       2       1
       1       2       1       1       2       1       1       2       1       1
       2       1       1       2       1       1       2       1       1       2
       1       1       2       1       1       2       1       1       2       1
       1       2       1       1       2       1       1       2       1       1
       2       1       1       2       1       1       2       1       1       2
       1       1       2       1       1       2       1       1       2       1
       1       2       1       1       2       1       1       2       1       1
       2       1       1       2       1       1       2       1       1       2
       1       1       2       1       1       2       1       1       2       1
       1       2       1       1       2       1       1       2       1       1
       2       1       1       2       1       1       2       1       1       2
       1       1       2       1       1       2       1       1       2       1
       1       2       1       1       2       1       1       2       1       1
       2       1       1       2       1       1       2       1       1       2
       1       1       2       1       1       2       1       1       2       1
       1       2       1       1       2       1       1       2       1       1
       2       1       1       2       1       1       2       1       1       2
       1       1       2       1       1       2       1       1       2       1
       1       2       1       1       2       1       1       2       1       1
       2       1       1       2       1       1       2       1       1       2
       1       1       2       1       1       2       1       1       2       1
       1       2       1       1       2       1       1       2       1       1
       2       1       1       2       1       1       2       1       1       2
       1       1       2       1       1       2       1       1       2       1
       1       2       1       1       2       1       1       2       1       1
       2       1       1       2       1       1       2       1       1       2
       1       1       2       1       1       2       1       1       2       1
       1       2       1       1       2       1       1       2       1       1
       2       1       1       2       1       1       2       1       1       2
       1       1       2       1       1       2       1       1       2       1
       1       2       1       1       2       1       1       2       1       1
       2       1       1       2       1       1       2       1       1       2
       1       1       2       1       1       2       1       1       2       1
       1       2       1       1       2       1       1       2       1       1
       2       1       1       2       1       1       2       1       1       2
       1       1       2       1       1       2       1       1       2       1
       1       2       1       1       2       1       1       2       1       1
       2       1       1       2       1       1       2       1       1       2
       1       1       2       1       1       2       1       1       2       1
       1       2       1       1       2       1       1       2       1       1
       2       1       1       2       1       1       2       1       1       2
       1       1       2       1       1       2       1       1       2       1
       1       2       1       1       2       1       1       2       1       1
       2       1       1       2       1       1       2       1       1       2
       1       1       2       1       1       2       1       1       2       1
       1       2       1       1       2       1       1       2       1       1
       2       1       1       2       1       1       2       1       1       2
       1       1       2       1       1       2       1       1       2       1
       1       2       1       1       2       1       1       2       1       1
       2       1       1       2       1       1       2       1       1       2
       1       1       2       1       1       2       1       1       2       1
       1       2       1       1       2       1       1       2       1       1
       2       1       1       2       1       1       2       1       1       2
       1       1       2       1       1       2       1       1       2       1
       1       2       1       1       2       1       1       2       1       1
       2       1       1       2       1       1       2       1       1       2
       1       1       2       1       1       2       1       1       2       1
       1       2       1       1       2       1       1       2       1       1
       2       1       1       2       1       1       2       1       1       2
       1       1       2       1       1       2       1       1       2       1
       1       2       1       1       2       1       1       2       1       1
       2       1       1       2       1       1       2       1       1       2
       1       1       2       1       1       2       1       1       2       1
       1       2       1       1       2       1       1       2       1       1
       2       1       1       2       1       1       2       1       1       2
       1       1       2       1       1       2       1       1       2       1
       1       2       1       1       2       1       1       2       1       1
       2       1       1       2       1       1       2       1       1       2
       1       1       2       1       1       2       1       1       2       1
       1       2       1       1       2       1       1       2       1       1
       2       1       1       2       1       1       2       1       1       2
       1       1       2       1       1       2       1       1       2       1
       1       2       1       1       2       1       1       2       1       1
       2       1       1       2       1       1       2       1       1       2
       1       1       2       1       1       2       1       1       2       1
       1       2       1       1       2       1       1       2       1       1
       2       1       1       2       1       1       2       1       1       2
       1       1       2       1       1       2       1       1       2       1
       1       2       1       1       2       1       1       2       1       1
       2       1       1       2       1       1       2       1       1       2
       1       1       2       1       1       2       1       1       2       1
       1       2       1       1       2       1       1       2       1       1
       2       1       1       2       1       1       2       1       1       2
       1       1       2       1       1       2       1       1       2       1
       1       2       1       1       2       1       1       2       1       1
       2       1       1       2       1       1       2       1       1       2
       1       1       2       1       1       2       1       1       2       1
       1       2       1       1       2       1       1       2       1       1
       2       1       1       2       1       1       2       1       1       2
       1       1       2       1       1       2       1       1       2       1
       1       2       1       1       2       1       1       2       1       1
       2       1       1       2       1       1       2       1       1       2
       1       1       2       1       1       2       1       1       2       1
       1       2       1       1       2       1       1       2       1       1
       2       1       1       2       1       1       2       1       1       2
       1       1       2       1       1       2       1       1       2       1
       1       2       1       1       2       1       1       2       1       1
       2       1       1       2       1       1       2       1       1       2
       1       1       2       1       1       2       1       1       2       1
       1       2       1       1       2       1       1       2       1       1
       2       1       1       2       1       1       2       1       1       2
       1       1       2       1       1       2       1       1       2       1
       1       2       1       1       2       1       1       2       1       1
       2       1       1       2       1       1       2       1       1       2
       1       1       2       1       1       2       1       1       2       1
       1       2       1       1       2       1       1       2       1       1
       2       1       1       2       1       1       2       1       1       2
       1       1       2       1       1       2       1       1       2       1
       1       2       1       1       2       1       1       2       1       1
       2       1       1       2       1       1       2       1       1       2
       1       1       2       1       1       2       1       1       2       1
       1       2       1       1       2       1       1       2       1       1
       2       1       1       2       1       1       2       1       1       2
       1       1       2       1       1       2       1       1       2       1
       1       2       1       1       2       1       1       2       1       1
       2       1       1       2       1       1       2       1       1       2
       1       1       2       1       1       2       1       1       2       1
       1       2       1       1       2       1       1       2       1       1
       2       1       1       2       1       1       2       1       1       2
       1       1       2       1       1       2       1       1       2       1
       1       2       1       1       2       1       1       2       1       1
       2       1       1       2       1       1       2       1       1       2
       1       1       2       1       1       2       1       1       2       1
       1       2       1       1       2       1       1       2       1       1
       2       1       1       2       1       1       2       1       1       2
       1       1       2       1       1       2       1       1       2       1
       1       2       1       1       2       1       1       2       1       1
       2       1       1       2       1       1       2       1       1       2
       1       1       2       1       1       2       1       1       2       1
       1       2       1       1       2       1       1       2       1       1
       2       1       1       2       1       1       2       1       1       2
       1       1       2       1       1       2       1       1       2       1
       1       2       1       1       2       1       1       2       1       1
       2       1       1       2       1       1       2       1       1       2
       1       1       2       1       1       2       1       1       2       1
       1       2       1       1       2       1       1       2       1       1
       2       1       1       2       1       1       2       1       1       2
       1       1       2       1       1       2       1       1       2       1
       1       2       1       1       2       1       1       2       1       1
       2       1       1       2       1       1       2       1       1       2
       1       1       2       1       1       2       1       1       2       1
       1       2       1       1       2       1       1       2       1       1
       2       1       1       2       1       1       2       1       1       2
       1       1       2       1       1       2       1       1       2       1
       1       2       1       1       2       1       1       2       1       1
       2       1       1       2       1       1       2       1       1       2
       1       1       2       1       1       2       1       1       2       1
       1       2       1       1       2       1       1       2       1       1
       2       1       1       2       1       1       2       1       1       2
       1       1       2       1       1       2       1       1       2       1
       1       2       1       1       2       1       1       2       1       1
       2       1       1       2       1       1       2       1       1       2
       1       1       2       1       1       2       1       1       2       1
       1       2       1       1       2       1       1       2       1       1
       2       1       1       2       1       1       2       1       1       2
       1       1       2       1       1       2       1       1       2       1
       1       2       1       1       2       1       1       2       1       1
       2       1       1       2       1       1       2       1       1       2
       1       1       2       1       1       2       1       1       2       1
       1       2       1       1       2       1       1       2       1       1
       2       1       1       2       1       1       2       1       1       2
       1       1       2       1       1       2       1       1       2       1
       1       2       1       1       2       1       1       2       1       1
       2       1       1       2       1       1       2       1       1       2
       1       1       2       1       1       2       1       1       2       1
       1       2       1       1       2       1       1       2       1       1
       2       1       1       2       1       1       2       1       1       2
       1       1       2       1       1       2       1       1       2       1
       1       2       1       1       2       1       1       2       1       1
       2       1       1       2       1       1       2       1       1       2
       1       1       2       1       1       2       1       1       2       1
       1       2       1       1       2       1       1       2       1       1
       2       1       1       2       1       1       2       1       1       2
       1       1       2       1       1       2       1       1       2       1
       1       2       1       1       2       1       1       2       1       1
       2       1       1       2       1       1       2       1       1       2
       1       1       2       1       1       2       1       1       2       1
       1       2       1       1       2       1       1       2       1       1
       2       1       1       2       1       1       2       1       1       2
       1       1       2       1       1       2       1       1       2       1
       1       2       1       1       2       1       1       2       1       1
       2       1       1       2       1       1       2       1       1       2
       1       1       2       1       1       2       1       1       2       1
       1       2       1       1       2       1       1       2       1       1
       2       1       1       2       1       1       2       1       1       2
       1       1       2       1       1       2       1       1       2       1
       1       2       1       1       2       1       1       2       1       1
       2       1       1       2       1       1       2       1       1       2
       1       1       2       1       1       2       1       1       2       1
       1       2       1       1       2       1       1       2       1       1
       2       1       1       2       1       1       2       1       1       2
       1       1       2       1       1       2       1       1       2       1
       1       2       1       1       2       1       1       2       1       1
       2       1       1       2       1       1       2       1       1       2
       1       1       2       1       1       2       1       1       2       1
       1       2       1       1       2       1       1       2       1       1
       2       1       1       2       1       1       2       1       1       2
       1       1       2       1       1       2       1       1       2       1
       1       2       1       1       2       1       1       2       1       1
       2       1       1       2       1       1       2       1       1       2
       1       1       2       1       1       2       1       1       2       1
       1       2       1       1       2       1       1       2       1       1
       2       1       1       2       1       1       2       1       1       2
       1       1       2       1       1       2       1       1
%FLAG NONBONDED_PARM_INDEX                                                      
%FORMAT(10I8)                                                                   
       1       2       4       7      11      16      22      29      37      46
      56      67      79      92     106       2       3       5       8      12
      17      23      30      38      47      57      68      80      93     107
       4       5       6       9      13      18      24      31      39      48
      58      69      81      94     108       7       8       9      10      14
      19      25      32      40      49      59      70      82      95     109
      11      12      13      14      15      20      26      33      41      50
      60      71      83      96     110      16      17      18      19      20
      21      27      34      42      51      61      72      84      97     111
      22      23      24      25      26      27      28      35      43      52
      62      73      85      98     112      29      30      31      32      33
      34      35      36      44      53      63      74      86      99     113
      37      38      39      40      41      42      43      44      45      54
      64      75      87     100     114      46      47      48      49      50
      51      52      53      54      55      65      76      88     101     115
      56      57      58      59      60      61      62      63      64      65
      66      77      89     102     116      67      68      69      70      71
      72      73      74      75      76      77      78      90     103     117
      79      80      81      82      83      84      85      86      87      88
      89      90      91     104     118      92      93      94      95      96
      97      98      99     100     101     102     103     104     105      -1
     106     107     108     109     110     111     112     113     114     115
     116     117     118      -1     120
%FLAG RESIDUE_LABEL                                                             
%FORMAT(20a4)                                                                   
GLY TYR ASP PRO GLU THR GLY THR TRP GLY Na+ Na+ WAT WAT WAT WAT WAT WAT WAT WAT 
WAT WAT WAT WAT WAT WAT WAT WAT WAT WAT WAT WAT WAT WAT WAT WAT WAT WAT WAT WAT 
WAT WAT WAT WAT WAT WAT WAT WAT WAT WAT WAT WAT WAT WAT WAT WAT WAT WAT WAT WAT 
WAT WAT WAT WAT WAT WAT WAT WAT WAT WAT WAT WAT WAT WAT WAT WAT WAT WAT WAT WAT 
WAT WAT WAT WAT WAT WAT WAT WAT WAT WAT WAT WAT WAT WAT WAT WAT WAT WAT WAT WAT 
WAT WAT WAT WAT WAT WAT WAT WAT WAT WAT WAT WAT WAT WAT WAT WAT WAT WAT WAT WAT 
WAT WAT WAT WAT WAT WAT WAT WAT WAT WAT WAT WAT WAT WAT WAT WAT WAT WAT WAT WAT 
WAT WAT WAT WAT WAT WAT WAT WAT WAT WAT WAT WAT WAT WAT WAT WAT WAT WAT WAT WAT 
WAT WAT WAT WAT WAT WAT WAT WAT WAT WAT WAT WAT WAT WAT WAT WAT WAT WAT WAT WAT 
WAT WAT WAT WAT WAT WAT WAT WAT WAT WAT WAT WAT WAT WAT WAT WAT WAT WAT WAT WAT 
WAT WAT WAT WAT WAT WAT WAT WAT WAT WAT WAT WAT WAT WAT WAT WAT WAT WAT WAT WAT 
WAT WAT WAT WAT WAT WAT WAT WAT WAT WAT WAT WAT WAT WAT WAT WAT WAT WAT WAT WAT 
WAT WAT WAT WAT WAT WAT WAT WAT WAT WAT WAT WAT WAT WAT WAT WAT WAT WAT WAT WAT 
WAT WAT WAT WAT WAT WAT WAT WAT WAT WAT WAT WAT WAT WAT WAT WAT WAT WAT WAT WAT 
WAT WAT WAT WAT WAT WAT WAT WAT WAT WAT WAT WAT WAT WAT WAT WAT WAT WAT WAT WAT 
WAT WAT WAT WAT WAT WAT WAT WAT WAT WAT WAT WAT WAT WAT WAT WAT WAT WAT WAT WAT 
WAT WAT WAT WAT WAT WAT WAT WAT WAT WAT WAT WAT WAT WAT WAT WAT WAT WAT WAT WAT 
WAT WAT WAT WAT WAT WAT WAT WAT WAT WAT WAT WAT WAT WAT WAT WAT WAT WAT WAT WAT 
WAT WAT WAT WAT WAT WAT WAT WAT WAT WAT WAT WAT WAT WAT WAT WAT WAT WAT WAT WAT 
WAT WAT WAT WAT WAT WAT WAT WAT WAT WAT WAT WAT WAT WAT WAT WAT WAT WAT WAT WAT 
WAT WAT WAT WAT WAT WAT WAT WAT WAT WAT WAT WAT WAT WAT WAT WAT WAT WAT WAT WAT 
WAT WAT WAT WAT WAT WAT WAT WAT WAT WAT WAT WAT WAT WAT WAT WAT WAT WAT WAT WAT 
WAT WAT WAT WAT WAT WAT WAT WAT WAT WAT WAT WAT WAT WAT WAT WAT WAT WAT WAT WAT 
WAT WAT WAT WAT WAT WAT WAT WAT WAT WAT WAT WAT WAT WAT WAT WAT WAT WAT WAT WAT 
WAT WAT WAT WAT WAT WAT WAT WAT WAT WAT WAT WAT WAT WAT WAT WAT WAT WAT WAT WAT 
WAT WAT WAT WAT WAT WAT WAT WAT WAT WAT WAT WAT WAT WAT WAT WAT WAT WAT WAT WAT 
WAT WAT WAT WAT WAT WAT WAT WAT WAT WAT WAT WAT WAT WAT WAT WAT WAT WAT WAT WAT 
WAT WAT WAT WAT WAT WAT WAT WAT WAT WAT WAT WAT WAT WAT WAT WAT WAT WAT WAT WAT 
WAT WAT WAT WAT WAT WAT WAT WAT WAT WAT WAT WAT WAT WAT WAT WAT WAT WAT WAT WAT 
WAT WAT WAT WAT WAT WAT WAT WAT WAT WAT WAT WAT WAT WAT WAT WAT WAT WAT WAT WAT 
WAT WAT WAT WAT WAT WAT WAT WAT WAT WAT WAT WAT WAT WAT WAT WAT WAT WAT WAT WAT 
WAT WAT WAT WAT WAT WAT WAT WAT WAT WAT WAT WAT WAT WAT WAT WAT WAT WAT WAT WAT 
WAT WAT WAT WAT WAT WAT WAT WAT WAT WAT WAT WAT WAT WAT WAT WAT WAT WAT WAT WAT 
WAT WAT WAT WAT WAT WAT WAT WAT WAT WAT WAT WAT WAT WAT WAT WAT WAT WAT WAT WAT 
WAT WAT WAT WAT WAT WAT WAT WAT WAT WAT WAT WAT WAT WAT WAT WAT WAT WAT WAT WAT 
WAT WAT WAT WAT WAT WAT WAT WAT WAT WAT WAT WAT WAT WAT WAT WAT WAT WAT WAT WAT 
WAT WAT WAT WAT WAT WAT WAT WAT WAT WAT WAT WAT WAT WAT WAT WAT WAT WAT WAT WAT 
WAT WAT WAT WAT WAT WAT WAT WAT WAT WAT WAT WAT WAT WAT WAT WAT WAT WAT WAT WAT 
WAT WAT WAT WAT WAT WAT WAT WAT WAT WAT WAT WAT WAT WAT WAT WAT WAT WAT WAT WAT 
WAT WAT WAT WAT WAT WAT WAT WAT WAT WAT WAT WAT WAT WAT WAT WAT WAT WAT WAT WAT 
WAT WAT WAT WAT WAT WAT WAT WAT WAT WAT WAT WAT WAT WAT WAT WAT WAT WAT WAT WAT 
WAT WAT WAT WAT WAT WAT WAT WAT WAT WAT WAT WAT WAT WAT WAT WAT WAT WAT WAT WAT 
WAT WAT WAT WAT WAT WAT WAT WAT WAT WAT WAT WAT WAT WAT WAT WAT WAT WAT WAT WAT 
WAT WAT WAT WAT WAT WAT WAT WAT WAT WAT WAT WAT WAT WAT WAT WAT WAT WAT WAT WAT 
WAT WAT WAT WAT WAT WAT WAT WAT WAT WAT WAT WAT WAT WAT WAT WAT WAT WAT WAT WAT 
WAT WAT WAT WAT WAT WAT WAT WAT WAT WAT WAT WAT WAT WAT WAT WAT WAT WAT WAT WAT 
WAT WAT WAT WAT WAT WAT WAT WAT WAT WAT WAT WAT WAT WAT WAT WAT WAT WAT WAT WAT 
WAT WAT WAT WAT WAT WAT WAT WAT WAT WAT WAT WAT WAT WAT WAT WAT WAT WAT WAT WAT 
WAT WAT WAT WAT WAT WAT WAT WAT WAT WAT WAT WAT WAT WAT WAT WAT WAT WAT WAT WAT 
WAT WAT WAT WAT WAT WAT WAT WAT WAT WAT WAT WAT WAT WAT WAT WAT WAT WAT WAT WAT 
WAT WAT WAT WAT WAT WAT WAT WAT WAT WAT WAT WAT WAT WAT WAT WAT WAT WAT WAT WAT 
WAT WAT WAT WAT WAT WAT WAT WAT WAT WAT WAT WAT WAT WAT WAT WAT WAT WAT WAT WAT 
WAT WAT WAT WAT WAT WAT WAT WAT WAT WAT WAT WAT WAT WAT WAT WAT WAT WAT WAT WAT 
WAT WAT WAT WAT WAT WAT WAT WAT WAT WAT WAT WAT WAT WAT WAT WAT WAT WAT WAT WAT 
WAT WAT WAT WAT WAT WAT WAT WAT WAT WAT WAT WAT WAT WAT WAT WAT WAT WAT WAT WAT 
WAT WAT WAT WAT WAT WAT WAT WAT WAT WAT WAT WAT WAT WAT WAT WAT WAT WAT WAT WAT 
WAT WAT WAT WAT WAT WAT WAT WAT WAT WAT WAT WAT WAT WAT WAT WAT WAT WAT WAT WAT 
WAT WAT WAT WAT WAT WAT WAT WAT WAT WAT WAT WAT WAT WAT WAT WAT WAT WAT WAT WAT 
WAT WAT WAT WAT WAT WAT WAT WAT WAT WAT WAT WAT WAT WAT WAT WAT WAT WAT WAT WAT 
WAT WAT WAT WAT WAT WAT WAT WAT WAT WAT WAT WAT WAT WAT WAT WAT WAT WAT WAT WAT 
WAT WAT WAT WAT WAT WAT WAT WAT WAT WAT WAT WAT WAT WAT WAT WAT WAT WAT WAT WAT 
WAT WAT WAT WAT WAT WAT WAT WAT WAT WAT WAT WAT WAT WAT WAT WAT WAT WAT WAT WAT 
WAT WAT WAT WAT WAT WAT WAT WAT WAT WAT WAT WAT WAT WAT WAT WAT WAT WAT WAT WAT 
WAT WAT WAT WAT WAT WAT WAT WAT WAT WAT WAT WAT WAT WAT WAT WAT WAT WAT WAT WAT 
WAT WAT WAT WAT WAT WAT WAT WAT WAT WAT WAT WAT WAT WAT WAT WAT WAT WAT WAT WAT 
WAT WAT WAT WAT WAT WAT WAT WAT WAT WAT WAT WAT WAT WAT WAT WAT WAT WAT WAT WAT 
WAT WAT WAT WAT WAT WAT WAT WAT WAT WAT WAT WAT WAT WAT WAT WAT WAT WAT WAT WAT 
WAT WAT WAT WAT WAT WAT WAT WAT WAT WAT WAT WAT WAT WAT WAT WAT WAT WAT WAT WAT 
WAT WAT WAT WAT WAT WAT WAT WAT WAT WAT WAT WAT WAT WAT WAT WAT WAT WAT WAT WAT 
WAT WAT WAT WAT WAT WAT WAT WAT WAT WAT WAT WAT WAT WAT WAT WAT WAT WAT WAT WAT 
WAT WAT WAT WAT WAT WAT WAT WAT WAT WAT WAT WAT WAT WAT WAT WAT WAT WAT WAT WAT 
WAT WAT WAT WAT WAT WAT WAT WAT WAT WAT WAT WAT WAT WAT WAT WAT WAT WAT WAT WAT 
WAT WAT WAT WAT WAT WAT WAT WAT WAT WAT WAT WAT WAT WAT WAT WAT WAT WAT WAT WAT 
WAT WAT WAT WAT WAT WAT WAT WAT WAT WAT WAT WAT WAT WAT WAT WAT WAT WAT WAT WAT 
WAT WAT WAT WAT WAT WAT WAT WAT WAT WAT WAT WAT WAT WAT WAT WAT WAT WAT WAT WAT 
WAT WAT WAT WAT WAT WAT WAT WAT WAT WAT WAT WAT WAT WAT WAT WAT WAT WAT WAT WAT 
WAT WAT WAT WAT WAT WAT WAT WAT WAT WAT WAT WAT WAT WAT WAT WAT WAT WAT WAT WAT 
WAT WAT WAT WAT WAT WAT WAT WAT WAT WAT WAT WAT WAT WAT WAT WAT WAT WAT WAT WAT 
WAT WAT WAT WAT WAT WAT WAT WAT WAT WAT WAT WAT WAT WAT WAT WAT WAT WAT WAT WAT 
WAT WAT WAT WAT WAT WAT WAT WAT WAT WAT WAT WAT WAT WAT WAT WAT WAT WAT WAT WAT 
WAT WAT WAT WAT WAT WAT WAT WAT WAT WAT WAT WAT WAT WAT WAT WAT WAT WAT WAT WAT 
WAT WAT WAT WAT WAT WAT WAT WAT WAT WAT WAT WAT WAT WAT WAT WAT WAT WAT WAT WAT 
WAT WAT WAT WAT WAT WAT WAT WAT WAT WAT WAT WAT WAT WAT WAT WAT WAT WAT WAT WAT 
WAT WAT WAT WAT WAT WAT WAT WAT WAT WAT WAT WAT WAT WAT WAT WAT WAT WAT WAT WAT 
WAT WAT WAT WAT WAT WAT WAT WAT WAT WAT WAT WAT WAT WAT WAT WAT WAT WAT WAT WAT 
WAT WAT WAT WAT WAT WAT WAT WAT WAT WAT WAT WAT WAT WAT WAT WAT WAT WAT WAT WAT 
WAT WAT WAT WAT WAT WAT WAT WAT WAT WAT WAT WAT WAT WAT WAT WAT WAT WAT WAT WAT 
WAT WAT WAT WAT WAT WAT WAT WAT WAT WAT WAT WAT WAT WAT WAT WAT WAT WAT WAT WAT 
WAT WAT WAT WAT WAT WAT WAT WAT WAT WAT WAT WAT WAT WAT WAT WAT WAT WAT WAT WAT 
WAT WAT WAT WAT WAT WAT WAT WAT WAT WAT WAT WAT WAT WAT WAT WAT WAT WAT WAT WAT 
WAT WAT WAT WAT WAT WAT WAT WAT WAT WAT WAT WAT WAT WAT WAT WAT WAT WAT WAT WAT 
WAT WAT WAT WAT WAT WAT WAT WAT WAT WAT WAT WAT WAT WAT WAT WAT WAT WAT WAT WAT 
WAT WAT WAT WAT WAT WAT WAT WAT WAT WAT WAT WAT WAT WAT WAT WAT WAT WAT WAT WAT 
WAT WAT WAT WAT WAT WAT WAT WAT WAT WAT WAT WAT WAT WAT WAT WAT WAT WAT WAT WAT 
WAT WAT WAT WAT WAT WAT WAT WAT WAT WAT WAT WAT WAT WAT WAT WAT WAT WAT WAT WAT 
WAT WAT WAT WAT WAT WAT WAT WAT WAT WAT WAT WAT WAT WAT WAT WAT WAT WAT WAT WAT 
WAT WAT WAT WAT WAT WAT WAT WAT WAT WAT WAT WAT WAT WAT WAT WAT WAT WAT WAT WAT 
WAT WAT WAT WAT WAT WAT WAT WAT WAT WAT WAT WAT WAT WAT WAT WAT WAT WAT WAT WAT 
WAT WAT WAT WAT WAT WAT WAT WAT WAT WAT WAT WAT WAT WAT WAT WAT WAT WAT WAT WAT 
WAT WAT WAT WAT WAT WAT WAT WAT WAT WAT WAT WAT WAT WAT WAT WAT WAT WAT WAT WAT 
WAT WAT WAT WAT WAT WAT WAT WAT WAT WAT WAT WAT WAT WAT WAT WAT WAT WAT WAT WAT 
WAT WAT WAT WAT WAT WAT WAT WAT WAT WAT WAT WAT WAT WAT WAT WAT WAT WAT WAT WAT 
WAT WAT WAT WAT WAT WAT WAT WAT WAT WAT WAT WAT WAT WAT WAT WAT WAT WAT WAT WAT 
WAT WAT WAT WAT WAT WAT WAT WAT WAT WAT WAT WAT WAT WAT WAT WAT WAT WAT WAT WAT 
WAT WAT WAT WAT WAT WAT WAT WAT WAT WAT WAT WAT WAT WAT WAT WAT WAT WAT WAT WAT 
WAT WAT WAT WAT WAT WAT WAT WAT WAT WAT WAT WAT WAT WAT WAT WAT WAT WAT WAT WAT 
WAT WAT WAT WAT WAT WAT WAT WAT WAT WAT WAT WAT WAT WAT WAT WAT WAT WAT WAT WAT 
WAT WAT WAT WAT WAT WAT WAT WAT WAT WAT WAT WAT WAT WAT WAT WAT WAT WAT WAT WAT 
WAT WAT WAT WAT WAT WAT WAT WAT WAT WAT WAT WAT WAT WAT WAT WAT WAT WAT WAT WAT 
WAT WAT WAT WAT WAT WAT WAT WAT WAT WAT WAT WAT WAT WAT WAT WAT WAT WAT WAT WAT 
WAT WAT WAT WAT WAT WAT WAT WAT WAT WAT WAT WAT WAT WAT WAT WAT WAT WAT WAT WAT 
WAT WAT WAT WAT WAT WAT WAT WAT WAT WAT WAT WAT WAT WAT WAT WAT WAT WAT WAT WAT 
WAT WAT WAT WAT WAT WAT WAT WAT WAT WAT WAT WAT WAT WAT WAT WAT WAT WAT WAT WAT 
WAT WAT WAT WAT WAT WAT WAT WAT WAT WAT WAT WAT WAT WAT WAT WAT WAT WAT WAT WAT 
WAT WAT WAT WAT WAT WAT WAT WAT WAT WAT WAT WAT WAT WAT WAT WAT WAT WAT WAT WAT 
WAT WAT WAT WAT WAT WAT WAT WAT WAT WAT WAT WAT WAT WAT WAT WAT WAT WAT WAT WAT 
WAT WAT WAT WAT WAT WAT WAT WAT WAT WAT WAT WAT WAT WAT WAT WAT WAT WAT WAT WAT 
WAT WAT WAT WAT WAT WAT WAT WAT WAT WAT WAT WAT WAT WAT WAT WAT WAT WAT WAT WAT 
WAT WAT WAT WAT WAT WAT WAT WAT WAT WAT WAT WAT WAT WAT WAT WAT WAT WAT WAT WAT 
WAT WAT WAT WAT WAT WAT WAT WAT WAT WAT WAT WAT WAT WAT WAT WAT WAT WAT WAT WAT 
WAT WAT WAT WAT WAT WAT WAT WAT WAT WAT WAT WAT WAT WAT WAT WAT WAT WAT WAT WAT 
WAT WAT WAT WAT WAT WAT WAT WAT WAT WAT WAT WAT WAT WAT WAT WAT WAT WAT WAT WAT 
WAT WAT WAT WAT WAT WAT WAT WAT WAT WAT WAT WAT WAT WAT WAT WAT WAT WAT WAT WAT 
WAT WAT WAT WAT WAT WAT WAT WAT WAT WAT WAT WAT WAT WAT WAT WAT WAT WAT WAT WAT 
WAT WAT WAT WAT WAT WAT WAT WAT WAT WAT WAT WAT WAT WAT WAT WAT WAT WAT WAT WAT 
WAT WAT WAT WAT WAT WAT WAT WAT WAT WAT WAT WAT WAT WAT WAT WAT WAT WAT WAT WAT 
WAT WAT WAT WAT WAT WAT WAT WAT WAT WAT WAT WAT WAT WAT WAT WAT WAT WAT WAT WAT 
WAT WAT WAT WAT WAT WAT WAT WAT WAT WAT WAT WAT WAT WAT WAT WAT WAT WAT WAT WAT 
WAT WAT WAT WAT WAT WAT WAT WAT WAT WAT WAT WAT WAT WAT WAT WAT WAT WAT WAT WAT 
WAT WAT WAT WAT WAT WAT WAT WAT WAT WAT WAT WAT WAT WAT WAT WAT WAT WAT WAT WAT 
WAT WAT WAT WAT WAT WAT WAT WAT WAT WAT WAT WAT WAT WAT WAT WAT WAT WAT WAT WAT 
WAT WAT WAT WAT WAT WAT WAT WAT WAT WAT WAT WAT WAT WAT WAT WAT WAT WAT WAT WAT 
WAT WAT WAT WAT WAT WAT WAT WAT WAT WAT WAT WAT WAT WAT WAT WAT WAT WAT WAT WAT 
WAT WAT WAT WAT WAT WAT WAT WAT WAT WAT WAT WAT WAT WAT WAT WAT WAT WAT WAT WAT 
WAT WAT WAT WAT WAT WAT WAT WAT WAT WAT WAT WAT WAT WAT WAT WAT WAT WAT WAT WAT 
WAT WAT WAT WAT WAT WAT WAT WAT WAT WAT WAT WAT WAT WAT WAT WAT WAT WAT WAT WAT 
WAT WAT WAT WAT WAT WAT WAT WAT WAT WAT WAT WAT WAT WAT WAT WAT WAT WAT WAT WAT 
WAT WAT WAT WAT WAT WAT WAT WAT 
%FLAG RESIDUE_POINTER                                                           
%FORMAT(10I8)                                                                   
       1      10      31      43      57      72      86      93     107     131
     139     140     141     144     147     150     153     156     159     162
     165     168     171     174     177     180     183     186     189     192
     195     198     201     204     207     210     213     216     219     222
     225     228     231     234     237     240     243     246     249     252
     255     258     261     264     267     270     273     276     279     282
     285     288     291     294     297     300     303     306     309     312
     315     318     321     324     327     330     333     336     339     342
     345     348     351     354     357     360     363     366     369     372
     375     378     381     384     387     390     393     396     399     402
     405     408     411     414     417     420     423     426     429     432
     435     438     441     444     447     450     453     456     459     462
     465     468     471     474     477     480     483     486     489     492
     495     498     501     504     507     510     513     516     519     522
     525     528     531     534     537     540     543     546     549     552
     555     558     561     564     567     570     573     576     579     582
     585     588     591     594     597     600     603     606     609     612
     615     618     621     624     627     630     633     636     639     642
     645     648     651     654     657     660     663     666     669     672
     675     678     681     684     687     690     693     696     699     702
     705     708     711     714     717     720     723     726     729     732
     735     738     741     744     747     750     753     756     759     762
     765     768     771     774     777     780     783     786     789     792
     795     798     801     804     807     810     813     816     819     822
     825     828     831     834     837     840     843     846     849     852
     855     858     861     864     867     870     873     876     879     882
     885     888     891     894     897     900     903     906     909     912
     915     918     921     924     927     930     933     936     939     942
     945     948     951     954     957     960     963     966     969     972
     975     978     981     984     987     990     993     996     999    1002
    1005    1008    1011    1014    1017    1020    1023    1026    1029    1032
    1035    1038    1041    1044    1047    1050    1053    1056    1059    1062
    1065    1068    1071    1074    1077    1080    1083    1086    1089    1092
    1095    1098    1101    1104    1107    1110    1113    1116    1119    1122
    1125    1128    1131    1134    1137    1140    1143    1146    1149    1152
    1155    1158    1161    1164    1167    1170    1173    1176    1179    1182
    1185    1188    1191    1194    1197    1200    1203    1206    1209    1212
    1215    1218    1221    1224    1227    1230    1233    1236    1239    1242
    1245    1248    1251    1254    1257    1260    1263    1266    1269    1272
    1275    1278    1281    1284    1287    1290    1293    1296    1299    1302
    1305    1308    1311    1314    1317    1320    1323    1326    1329    1332
    1335    1338    1341    1344    1347    1350    1353    1356    1359    1362
    1365    1368    1371    1374    1377    1380    1383    1386    1389    1392
    1395    1398    1401    1404    1407    1410    1413    1416    1419    1422
    1425    1428    1431    1434    1437    1440    1443    1446    1449    1452
    1455    1458    1461    1464    1467    1470    1473    1476    1479    1482
    1485    1488    1491    1494    1497    1500    1503    1506    1509    1512
    1515    1518    1521    1524    1527    1530    1533    1536    1539    1542
    1545    1548    1551    1554    1557    1560    1563    1566    1569    1572
    1575    1578    1581    1584    1587    1590    1593    1596    1599    1602
    1605    1608    1611    1614    1617    1620    1623    1626    1629    1632
    1635    1638    1641    1644    1647    1650    1653    1656    1659    1662
    1665    1668    1671    1674    1677    1680    1683    1686    1689    1692
    1695    1698    1701    1704    1707    1710    1713    1716    1719    1722
    1725    1728    1731    1734    1737    1740    1743    1746    1749    1752
    1755    1758    1761    1764    1767    1770    1773    1776    1779    1782
    1785    1788    1791    1794    1797    1800    1803    1806    1809    1812
    1815    1818    1821    1824    1827    1830    1833    1836    1839    1842
    1845    1848    1851    1854    1857    1860    1863    1866    1869    1872
    1875    1878    1881    1884    1887    1890    1893    1896    1899    1902
    1905    1908    1911    1914    1917    1920    1923    1926    1929    1932
    1935    1938    1941    1944    1947    1950    1953    1956    1959    1962
    1965    1968    1971    1974    1977    1980    1983    1986    1989    1992
    1995    1998    2001    2004    2007    2010    2013    2016    2019    2022
    2025    2028    2031    2034    2037    2040    2043    2046    2049    2052
    2055    2058    2061    2064    2067    2070    2073    2076    2079    2082
    2085    2088    2091    2094    2097    2100    2103    2106    2109    2112
    2115    2118    2121    2124    2127    2130    2133    2136    2139    2142
    2145    2148    2151    2154    2157    2160    2163    2166    2169    2172
    2175    2178    2181    2184    2187    2190    2193    2196    2199    2202
    2205    2208    2211    2214    2217    2220    2223    2226    2229    2232
    2235    2238    2241    2244    2247    2250    2253    2256    2259    2262
    2265    2268    2271    2274    2277    2280    2283    2286    2289    2292
    2295    2298    2301    2304    2307    2310    2313    2316    2319    2322
    2325    2328    2331    2334    2337    2340    2343    2346    2349    2352
    2355    2358    2361    2364    2367    2370    2373    2376    2379    2382
    2385    2388    2391    2394    2397    2400    2403    2406    2409    2412
    2415    2418    2421    2424    2427    2430    2433    2436    2439    2442
    2445    2448    2451    2454    2457    2460    2463    2466    2469    2472
    2475    2478    2481    2484    2487    2490    2493    2496    2499    2502
    2505    2508    2511    2514    2517    2520    2523    2526    2529    2532
    2535    2538    2541    2544    2547    2550    2553    2556    2559    2562
    2565    2568    2571    2574    2577    2580    2583    2586    2589    2592
    2595    2598    2601    2604    2607    2610    2613    2616    2619    2622
    2625    2628    2631    2634    2637    2640    2643    2646    2649    2652
    2655    2658    2661    2664    2667    2670    2673    2676    2679    2682
    2685    2688    2691    2694    2697    2700    2703    2706    2709    2712
    2715    2718    2721    2724    2727    2730    2733    2736    2739    2742
    2745    2748    2751    2754    2757    2760    2763    2766    2769    2772
    2775    2778    2781    2784    2787    2790    2793    2796    2799    2802
    2805    2808    2811    2814    2817    2820    2823    2826    2829    2832
    2835    2838    2841    2844    2847    2850    2853    2856    2859    2862
    2865    2868    2871    2874    2877    2880    2883    2886    2889    2892
    2895    2898    2901    2904    2907    2910    2913    2916    2919    2922
    2925    2928    2931    2934    2937    2940    2943    2946    2949    2952
    2955    2958    2961    2964    2967    2970    2973    2976    2979    2982
    2985    2988    2991    2994    2997    3000    3003    3006    3009    3012
    3015    3018    3021    3024    3027    3030    3033    3036    3039    3042
    3045    3048    3051    3054    3057    3060    3063    3066    3069    3072
    3075    3078    3081    3084    3087    3090    3093    3096    3099    3102
    3105    3108    3111    3114    3117    3120    3123    3126    3129    3132
    3135    3138    3141    3144    3147    3150    3153    3156    3159    3162
    3165    3168    3171    3174    3177    3180    3183    3186    3189    3192
    3195    3198    3201    3204    3207    3210    3213    3216    3219    3222
    3225    3228    3231    3234    3237    3240    3243    3246    3249    3252
    3255    3258    3261    3264    3267    3270    3273    3276    3279    3282
    3285    3288    3291    3294    3297    3300    3303    3306    3309    3312
    3315    3318    3321    3324    3327    3330    3333    3336    3339    3342
    3345    3348    3351    3354    3357    3360    3363    3366    3369    3372
    3375    3378    3381    3384    3387    3390    3393    3396    3399    3402
    3405    3408    3411    3414    3417    3420    3423    3426    3429    3432
    3435    3438    3441    3444    3447    3450    3453    3456    3459    3462
    3465    3468    3471    3474    3477    3480    3483    3486    3489    3492
    3495    3498    3501    3504    3507    3510    3513    3516    3519    3522
    3525    3528    3531    3534    3537    3540    3543    3546    3549    3552
    3555    3558    3561    3564    3567    3570    3573    3576    3579    3582
    3585    3588    3591    3594    3597    3600    3603    3606    3609    3612
    3615    3618    3621    3624    3627    3630    3633    3636    3639    3642
    3645    3648    3651    3654    3657    3660    3663    3666    3669    3672
    3675    3678    3681    3684    3687    3690    3693    3696    3699    3702
    3705    3708    3711    3714    3717    3720    3723    3726    3729    3732
    3735    3738    3741    3744    3747    3750    3753    3756    3759    3762
    3765    3768    3771    3774    3777    3780    3783    3786    3789    3792
    3795    3798    3801    3804    3807    3810    3813    3816    3819    3822
    3825    3828    3831    3834    3837    3840    3843    3846    3849    3852
    3855    3858    3861    3864    3867    3870    3873    3876    3879    3882
    3885    3888    3891    3894    3897    3900    3903    3906    3909    3912
    3915    3918    3921    3924    3927    3930    3933    3936    3939    3942
    3945    3948    3951    3954    3957    3960    3963    3966    3969    3972
    3975    3978    3981    3984    3987    3990    3993    3996    3999    4002
    4005    4008    4011    4014    4017    4020    4023    4026    4029    4032
    4035    4038    4041    4044    4047    4050    4053    4056    4059    4062
    4065    4068    4071    4074    4077    4080    4083    4086    4089    4092
    4095    4098    4101    4104    4107    4110    4113    4116    4119    4122
    4125    4128    4131    4134    4137    4140    4143    4146    4149    4152
    4155    4158    4161    4164    4167    4170    4173    4176    4179    4182
    4185    4188    4191    4194    4197    4200    4203    4206    4209    4212
    4215    4218    4221    4224    4227    4230    4233    4236    4239    4242
    4245    4248    4251    4254    4257    4260    4263    4266    4269    4272
    4275    4278    4281    4284    4287    4290    4293    4296    4299    4302
    4305    4308    4311    4314    4317    4320    4323    4326    4329    4332
    4335    4338    4341    4344    4347    4350    4353    4356    4359    4362
    4365    4368    4371    4374    4377    4380    4383    4386    4389    4392
    4395    4398    4401    4404    4407    4410    4413    4416    4419    4422
    4425    4428    4431    4434    4437    4440    4443    4446    4449    4452
    4455    4458    4461    4464    4467    4470    4473    4476    4479    4482
    4485    4488    4491    4494    4497    4500    4503    4506    4509    4512
    4515    4518    4521    4524    4527    4530    4533    4536    4539    4542
    4545    4548    4551    4554    4557    4560    4563    4566    4569    4572
    4575    4578    4581    4584    4587    4590    4593    4596    4599    4602
    4605    4608    4611    4614    4617    4620    4623    4626    4629    4632
    4635    4638    4641    4644    4647    4650    4653    4656    4659    4662
    4665    4668    4671    4674    4677    4680    4683    4686    4689    4692
    4695    4698    4701    4704    4707    4710    4713    4716    4719    4722
    4725    4728    4731    4734    4737    4740    4743    4746    4749    4752
    4755    4758    4761    4764    4767    4770    4773    4776    4779    4782
    4785    4788    4791    4794    4797    4800    4803    4806    4809    4812
    4815    4818    4821    4824    4827    4830    4833    4836    4839    4842
    4845    4848    4851    4854    4857    4860    4863    4866    4869    4872
    4875    4878    4881    4884    4887    4890    4893    4896    4899    4902
    4905    4908    4911    4914    4917    4920    4923    4926    4929    4932
    4935    4938    4941    4944    4947    4950    4953    4956    4959    4962
    4965    4968    4971    4974    4977    4980    4983    4986    4989    4992
    4995    4998    5001    5004    5007    5010    5013    5016    5019    5022
    5025    5028    5031    5034    5037    5040    5043    5046    5049    5052
    5055    5058    5061    5064    5067    5070    5073    5076    5079    5082
    5085    5088    5091    5094    5097    5100    5103    5106    5109    5112
    5115    5118    5121    5124    5127    5130    5133    5136    5139    5142
    5145    5148    5151    5154    5157    5160    5163    5166    5169    5172
    5175    5178    5181    5184    5187    5190    5193    5196    5199    5202
    5205    5208    5211    5214    5217    5220    5223    5226    5229    5232
    5235    5238    5241    5244    5247    5250    5253    5256    5259    5262
    5265    5268    5271    5274    5277    5280    5283    5286    5289    5292
    5295    5298    5301    5304    5307    5310    5313    5316    5319    5322
    5325    5328    5331    5334    5337    5340    5343    5346    5349    5352
    5355    5358    5361    5364    5367    5370    5373    5376    5379    5382
    5385    5388    5391    5394    5397    5400    5403    5406    5409    5412
    5415    5418    5421    5424    5427    5430    5433    5436    5439    5442
    5445    5448    5451    5454    5457    5460    5463    5466    5469    5472
    5475    5478    5481    5484    5487    5490    5493    5496    5499    5502
    5505    5508    5511    5514    5517    5520    5523    5526    5529    5532
    5535    5538    5541    5544    5547    5550    5553    5556    5559    5562
    5565    5568    5571    5574    5577    5580    5583    5586    5589    5592
    5595    5598    5601    5604    5607    5610    5613    5616    5619    5622
    5625    5628    5631    5634    5637    5640    5643    5646    5649    5652
    5655    5658    5661    5664    5667    5670    5673    5676    5679    5682
    5685    5688    5691    5694    5697    5700    5703    5706    5709    5712
    5715    5718    5721    5724    5727    5730    5733    5736    5739    5742
    5745    5748    5751    5754    5757    5760    5763    5766    5769    5772
    5775    5778    5781    5784    5787    5790    5793    5796    5799    5802
    5805    5808    5811    5814    5817    5820    5823    5826    5829    5832
    5835    5838    5841    5844    5847    5850    5853    5856    5859    5862
    5865    5868    5871    5874    5877    5880    5883    5886    5889    5892
    5895    5898    5901    5904    5907    5910    5913    5916    5919    5922
    5925    5928    5931    5934    5937    5940    5943    5946    5949    5952
    5955    5958    5961    5964    5967    5970    5973    5976    5979    5982
    5985    5988    5991    5994    5997    6000    6003    6006    6009    6012
    6015    6018    6021    6024    6027    6030    6033    6036    6039    6042
    6045    6048    6051    6054    6057    6060    6063    6066    6069    6072
    6075    6078    6081    6084    6087    6090    6093    6096    6099    6102
    6105    6108    6111    6114    6117    6120    6123    6126    6129    6132
    6135    6138    6141    6144    6147    6150    6153    6156    6159    6162
    6165    6168    6171    6174    6177    6180    6183    6186    6189    6192
    6195    6198    6201    6204    6207    6210    6213    6216    6219    6222
    6225    6228    6231    6234    6237    6240    6243    6246    6249    6252
    6255    6258    6261    6264    6267    6270    6273    6276    6279    6282
    6285    6288    6291    6294    6297    6300    6303    6306    6309    6312
    6315    6318    6321    6324    6327    6330    6333    6336    6339    6342
    6345    6348    6351    6354    6357    6360    6363    6366    6369    6372
    6375    6378    6381    6384    6387    6390    6393    6396    6399    6402
    6405    6408    6411    6414    6417    6420    6423    6426    6429    6432
    6435    6438    6441    6444    6447    6450    6453    6456    6459    6462
    6465    6468    6471    6474    6477    6480    6483    6486    6489    6492
    6495    6498    6501    6504    6507    6510    6513    6516    6519    6522
    6525    6528    6531    6534    6537    6540    6543    6546    6549    6552
    6555    6558    6561    6564    6567    6570    6573    6576    6579    6582
    6585    6588    6591    6594    6597    6600    6603    6606    6609    6612
    6615    6618    6621    6624    6627    6630    6633    6636    6639    6642
    6645    6648    6651    6654    6657    6660    6663    6666    6669    6672
    6675    6678    6681    6684    6687    6690    6693    6696    6699    6702
    6705    6708    6711    6714    6717    6720    6723    6726    6729    6732
    6735    6738    6741    6744    6747    6750    6753    6756    6759    6762
    6765    6768    6771    6774    6777    6780    6783    6786    6789    6792
    6795    6798    6801    6804    6807    6810    6813    6816    6819    6822
    6825    6828    6831    6834    6837    6840    6843    6846    6849    6852
    6855    6858    6861    6864    6867    6870    6873    6876    6879    6882
    6885    6888    6891    6894    6897    6900    6903    6906    6909    6912
    6915    6918    6921    6924    6927    6930    6933    6936    6939    6942
    6945    6948    6951    6954    6957    6960    6963    6966    6969    6972
    6975    6978    6981    6984    6987    6990    6993    6996    6999    7002
    7005    7008    7011    7014    7017    7020    7023    7026    7029    7032
    7035    7038    7041    7044    7047    7050    7053    7056    7059    7062
    7065    7068    7071    7074    7077    7080    7083    7086    7089    7092
    7095    7098    7101    7104    7107    7110    7113    7116    7119    7122
    7125    7128    7131    7134    7137    7140    7143    7146    7149    7152
    7155    7158    7161    7164    7167    7170    7173    7176    7179    7182
    7185    7188    7191    7194    7197    7200    7203    7206    7209    7212
    7215    7218    7221    7224    7227    7230    7233    7236    7239    7242
    7245    7248    7251    7254    7257    7260    7263    7266    7269    7272
    7275    7278    7281    7284    7287    7290    7293    7296    7299    7302
    7305    7308    7311    7314    7317    7320    7323    7326    7329    7332
    7335    7338    7341    7344    7347    7350    7353    7356    7359    7362
    7365    7368    7371    7374    7377    7380    7383    7386    7389    7392
    7395    7398    7401    7404    7407    7410    7413    7416    7419    7422
    7425    7428    7431    7434    7437    7440    7443    7446    7449    7452
    7455    7458    7461    7464    7467    7470    7473    7476    7479    7482
    7485    7488    7491    7494    7497    7500    7503    7506    7509    7512
    7515    7518    7521    7524    7527    7530    7533    7536    7539    7542
    7545    7548    7551    7554    7557    7560    7563    7566    7569    7572
    7575    7578    7581    7584    7587    7590    7593    7596    7599    7602
    7605    7608    7611    7614    7617    7620    7623    7626    7629    7632
    7635    7638    7641    7644    7647    7650    7653    7656    7659    7662
    7665    7668    7671    7674    7677    7680    7683    7686    7689    7692
    7695    7698    7701    7704    7707    7710    7713    7716    7719    7722
    7725    7728    7731    7734    7737    7740    7743    7746    7749    7752
    7755    7758    7761    7764    7767    7770    7773    7776    7779    7782
    7785    7788    7791    7794    7797    7800    7803    7806    7809    7812
    7815    7818    7821    7824    7827    7830    7833    7836    7839    7842
    7845    7848    7851    7854    7857    7860    7863    7866    7869    7872
    7875    7878    7881    7884    7887    7890    7893    7896    7899    7902
    7905    7908    7911    7914    7917    7920    7923    7926    7929    7932
    7935    7938    7941    7944    7947    7950    7953    7956    7959    7962
    7965    7968    7971    7974    7977    7980    7983    7986    7989    7992
    7995    7998    8001    8004    8007    8010    8013    8016    8019    8022
    8025    8028    8031    8034    8037    8040    8043    8046    8049    8052
    8055    8058    8061    8064    8067    8070    8073    8076    8079    8082
    8085    8088    8091    8094    8097    8100    8103    8106    8109    8112
    8115    8118    8121    8124    8127    8130    8133    8136    8139    8142
    8145    8148    8151    8154    8157    8160    8163    8166    8169    8172
    8175    8178    8181    8184    8187    8190    8193    8196    8199    8202
    8205    8208    8211    8214    8217    8220    8223    8226    8229    8232
    8235    8238    8241    8244    8247    8250    8253    8256    8259    8262
    8265    8268    8271    8274    8277    8280    8283    8286    8289    8292
    8295    8298    8301    8304    8307    8310    8313    8316    8319    8322
    8325    8328    8331    8334    8337    8340    8343    8346
%FLAG BOND_FORCE_CONSTANT                                                       
%FORMAT(5E16.8)                                                                 
  5.70000000E+02  4.90000000E+02  3.40000000E+02  3.17000000E+02  4.34000000E+02
  3.67000000E+02  3.67000000E+02  4.69000000E+02  5.53000000E+02  4.50000000E+02
  4.69000000E+02  3.40000000E+02  3.17000000E+02  3.40000000E+02  3.10000000E+02
  4.34000000E+02  3.37000000E+02  6.56000000E+02  3.40000000E+02  3.17000000E+02
  3.10000000E+02  3.10000000E+02  3.40000000E+02  3.37000000E+02  3.10000000E+02
  3.40000000E+02  3.10000000E+02  3.20000000E+02  3.10000000E+02  4.69000000E+02
  4.69000000E+02  4.47000000E+02  4.34000000E+02  4.28000000E+02  3.67000000E+02
  4.27000000E+02  5.46000000E+02  3.88000000E+02  3.17000000E+02  6.56000000E+02
  5.53000000E+02  5.53000000E+02
%FLAG BOND_EQUIL_VALUE                                                          
%FORMAT(5E16.8)                                                                 
  1.22900000E+00  1.33500000E+00  1.09000000E+00  1.52200000E+00  1.01000000E+00
  1.47100000E+00  1.08000000E+00  1.40000000E+00  9.60000000E-01  1.36400000E+00
  1.40900000E+00  1.09000000E+00  1.51000000E+00  1.09000000E+00  1.52600000E+00
  1.01000000E+00  1.44900000E+00  1.25000000E+00  1.09000000E+00  1.52200000E+00
  1.52600000E+00  1.52600000E+00  1.09000000E+00  1.44900000E+00  1.52600000E+00
  1.09000000E+00  1.52600000E+00  1.41000000E+00  1.52600000E+00  1.40400000E+00
  1.40000000E+00  1.41900000E+00  1.01000000E+00  1.38000000E+00  1.08000000E+00
  1.38100000E+00  1.35200000E+00  1.45900000E+00  1.49500000E+00  1.25000000E+00
  1.51360000E+00  9.57200000E-01
%FLAG ANGLE_FORCE_CONSTANT                                                      
%FORMAT(5E16.8)                                                                 
  8.00000000E+01  5.00000000E+01  5.00000000E+01  5.00000000E+01  3.50000000E+01
  8.00000000E+01  7.00000000E+01  5.00000000E+01  3.50000000E+01  5.00000000E+01
  8.00000000E+01  5.00000000E+01  7.00000000E+01  5.00000000E+01  5.00000000E+01
  6.30000000E+01  6.30000000E+01  6.30000000E+01  5.00000000E+01  3.50000000E+01
  6.30000000E+01  7.00000000E+01  5.00000000E+01  5.00000000E+01  5.00000000E+01
  6.30000000E+01  5.00000000E+01  5.00000000E+01  8.00000000E+01  6.30000000E+01
  5.00000000E+01  8.00000000E+01  5.00000000E+01  3.50000000E+01  6.30000000E+01
  7.00000000E+01  5.00000000E+01  5.00000000E+01  6.30000000E+01  8.00000000E+01
  5.00000000E+01  4.00000000E+01  5.00000000E+01  3.50000000E+01  5.00000000E+01
  4.00000000E+01  5.00000000E+01  8.00000000E+01  5.00000000E+01  6.30000000E+01
  4.00000000E+01  5.00000000E+01  5.00000000E+01  5.00000000E+01  6.30000000E+01
  5.00000000E+01  5.50000000E+01  5.00000000E+01  5.00000000E+01  4.00000000E+01
  5.00000000E+01  8.00000000E+01  3.50000000E+01  5.00000000E+01  6.30000000E+01
  6.30000000E+01  5.00000000E+01  6.30000000E+01  6.30000000E+01  5.00000000E+01
  7.00000000E+01  7.00000000E+01  5.00000000E+01  6.30000000E+01  5.00000000E+01
  7.00000000E+01  5.00000000E+01  7.00000000E+01  6.30000000E+01  6.30000000E+01
  5.00000000E+01  7.00000000E+01  7.00000000E+01  6.30000000E+01  8.00000000E+01
  7.00000000E+01  1.00000000E+02
%FLAG ANGLE_EQUIL_VALUE                                                         
%FORMAT(5E16.8)                                                                 
  2.14501057E+00  2.09439600E+00  2.12755727E+00  1.91113635E+00  1.91113635E+00
  2.10137732E+00  2.03505478E+00  1.91113635E+00  1.91113635E+00  1.91113635E+00
  1.94080696E+00  2.09439600E+00  2.09439600E+00  1.97222290E+00  2.09439600E+00
  2.09439600E+00  2.09439600E+00  2.09439600E+00  1.91113635E+00  1.91113635E+00
  1.93906163E+00  2.09439600E+00  1.91113635E+00  1.91113635E+00  1.91113635E+00
  1.98967620E+00  2.06018753E+00  1.91113635E+00  1.91462701E+00  1.92160833E+00
  2.12755727E+00  2.19911580E+00  1.91113635E+00  1.91113635E+00  1.93906163E+00
  2.04203610E+00  1.91113635E+00  1.91113635E+00  1.93906163E+00  1.91462701E+00
  1.91113635E+00  1.91113635E+00  1.91113635E+00  1.91113635E+00  2.05948940E+00
  1.91113635E+00  1.91113635E+00  1.91462701E+00  1.91113635E+00  1.93906163E+00
  1.91113635E+00  1.91113635E+00  1.91113635E+00  1.91113635E+00  1.93906163E+00
  1.91113635E+00  1.89368305E+00  1.91113635E+00  1.91113635E+00  1.91113635E+00
  1.91113635E+00  1.91462701E+00  1.91113635E+00  2.09439600E+00  2.09439600E+00
  2.14151991E+00  2.09439600E+00  2.09439600E+00  2.02807346E+00  2.14850123E+00
  2.31779824E+00  1.82212452E+00  2.09439600E+00  1.85703112E+00  2.09439600E+00
  1.94778828E+00  2.09439600E+00  1.89717371E+00  1.89891904E+00  2.35445017E+00
  1.91113635E+00  2.18166250E+00  2.24449438E+00  2.01760148E+00  2.19911580E+00
  2.04203610E+00  1.82421892E+00
%FLAG DIHEDRAL_FORCE_CONSTANT                                                   
%FORMAT(5E16.8)                                                                 
  2.00000000E+00  2.50000000E+00  0.00000000E+00  1.80000000E+00  8.00000000E-01
  0.00000000E+00  0.00000000E+00  2.70000000E-01  4.20000000E-01  1.55555556E-01
  3.62500000E+00  8.83000000E-01  0.00000000E+00  6.50000000E-02  5.50000000E-02
  4.69000000E-01  1.92000000E-01  1.20000000E-02  2.00000000E-01  2.00000000E-01
  4.00000000E-01  8.00000000E-01  8.00000000E-02  6.90000000E-02  4.80000000E-02
  1.20000000E-02  2.90000000E-01  7.00000000E-03  4.50000000E-01  1.58000000E+00
  5.50000000E-01  2.00000000E+00  4.24000000E-01  4.59000000E-01  5.80000000E-02
  1.54000000E-01  7.69000000E-01  3.10000000E-02  2.15400000E+00  6.47000000E-01
  8.90000000E-02  1.50000000E-01  1.60000000E-01  2.00000000E-01  2.50000000E-01
  1.80000000E-01  4.21000000E-01  3.93000000E-01  1.44000000E-01  1.45000000E-01
  3.90000000E-01  6.40000000E-02  1.36700000E+00  2.22000000E-01  6.08000000E-01
  5.60000000E-02  1.00000000E-01  1.84000000E-01  7.80000000E-02  6.97000000E-01
  1.19000000E-01  3.15000000E-01  1.56000000E-01  2.50000000E-01  4.06000000E-01
  2.89000000E-01  1.48000000E-01  1.12000000E-01  6.43000000E-01  7.90000000E-02
  2.36000000E-01  4.80000000E-02  1.66666667E-01  6.00000000E-03  2.51000000E-01
  1.30000000E-02  3.37000000E-01  2.16000000E-01  1.00000000E-03  6.74000000E-01
  6.00000000E-03  9.50000000E-02  3.00000000E+00  3.50000000E+00  1.52500000E+00
  6.52500000E+00  1.50000000E+00  1.67500000E+00  1.70000000E-02  3.53000000E-01
  2.34000000E-01  7.40000000E-02  3.65000000E-01  4.08000000E-01  8.19000000E-01
  9.50000000E-02  7.90000000E-02  3.13000000E-01  3.10000000E-02  1.05000000E+01
  1.10000000E+00  1.00000000E+00  0.00000000E+00
%FLAG DIHEDRAL_PERIODICITY                                                      
%FORMAT(5E16.8)                                                                 
  1.00000000E+00  2.00000000E+00  2.00000000E+00  2.00000000E+00  3.00000000E+00
  4.00000000E+00  1.00000000E+00  2.00000000E+00  3.00000000E+00  3.00000000E+00
  2.00000000E+00  2.00000000E+00  3.00000000E+00  4.00000000E+00  1.00000000E+00
  2.00000000E+00  3.00000000E+00  4.00000000E+00  1.00000000E+00  2.00000000E+00
  3.00000000E+00  1.00000000E+00  3.00000000E+00  2.00000000E+00  4.00000000E+00
  1.00000000E+00  2.00000000E+00  4.00000000E+00  1.00000000E+00  2.00000000E+00
  3.00000000E+00  2.00000000E+00  1.00000000E+00  2.00000000E+00  3.00000000E+00
  4.00000000E+00  2.00000000E+00  4.00000000E+00  1.00000000E+00  2.00000000E+00
  4.00000000E+00  3.00000000E+00  3.00000000E+00  1.00000000E+00  2.00000000E+00
  3.00000000E+00  1.00000000E+00  2.00000000E+00  3.00000000E+00  4.00000000E+00
  2.00000000E+00  4.00000000E+00  1.00000000E+00  2.00000000E+00  3.00000000E+00
  4.00000000E+00  1.00000000E+00  2.00000000E+00  4.00000000E+00  1.00000000E+00
  2.00000000E+00  3.00000000E+00  4.00000000E+00  1.00000000E+00  1.00000000E+00
  2.00000000E+00  3.00000000E+00  4.00000000E+00  1.00000000E+00  2.00000000E+00
  3.00000000E+00  4.00000000E+00  3.00000000E+00  1.00000000E+00  2.00000000E+00
  4.00000000E+00  1.00000000E+00  2.00000000E+00  4.00000000E+00  1.00000000E+00
  2.00000000E+00  4.00000000E+00  2.00000000E+00  2.00000000E+00  2.00000000E+00
  2.00000000E+00  2.00000000E+00  2.00000000E+00  1.00000000E+00  2.00000000E+00
  3.00000000E+00  4.00000000E+00  1.00000000E+00  2.00000000E+00  3.00000000E+00
  4.00000000E+00  1.00000000E+00  2.00000000E+00  4.00000000E+00  2.00000000E+00
  2.00000000E+00  2.00000000E+00  2.00000000E+00
%FLAG DIHEDRAL_PHASE                                                            
%FORMAT(5E16.8)                                                                 
  0.00000000E+00  3.14159400E+00  0.00000000E+00  0.00000000E+00  0.00000000E+00
  0.00000000E+00  0.00000000E+00  0.00000000E+00  0.00000000E+00  0.00000000E+00
  3.14159400E+00  3.14159400E+00  0.00000000E+00  0.00000000E+00  0.00000000E+00
  3.14159400E+00  0.00000000E+00  3.14159400E+00  0.00000000E+00  0.00000000E+00
  0.00000000E+00  0.00000000E+00  3.14159400E+00  3.14159400E+00  3.14159400E+00
  3.14159400E+00  3.14159400E+00  3.14159400E+00  3.14159400E+00  3.14159400E+00
  3.14159400E+00  0.00000000E+00  0.00000000E+00  3.14159400E+00  0.00000000E+00
  0.00000000E+00  3.14159400E+00  3.14159400E+00  3.14159400E+00  3.14159400E+00
  0.00000000E+00  0.00000000E+00  0.00000000E+00  3.14159400E+00  3.14159400E+00
  0.00000000E+00  3.14159400E+00  3.14159400E+00  0.00000000E+00  0.00000000E+00
  3.14159400E+00  0.00000000E+00  3.14159400E+00  3.14159400E+00  3.14159400E+00
  3.14159400E+00  3.14159400E+00  3.14159400E+00  0.00000000E+00  3.14159400E+00
  3.14159400E+00  0.00000000E+00  0.00000000E+00  0.00000000E+00  3.14159400E+00
  3.14159400E+00  0.00000000E+00  0.00000000E+00  0.00000000E+00  3.14159400E+00
  0.00000000E+00  0.00000000E+00  0.00000000E+00  3.14159400E+00  0.00000000E+00
  0.00000000E+00  0.00000000E+00  3.14159400E+00  3.14159400E+00  0.00000000E+00
  0.00000000E+00  0.00000000E+00  3.14159400E+00  3.14159400E+00  3.14159400E+00
  3.14159400E+00  3.14159400E+00  3.14159400E+00  3.14159400E+00  3.14159400E+00
  0.00000000E+00  0.00000000E+00  0.00000000E+00  0.00000000E+00  0.00000000E+00
  3.14159400E+00  0.00000000E+00  3.14159400E+00  0.00000000E+00  3.14159400E+00
  3.14159400E+00  3.14159400E+00  3.14159400E+00
%FLAG SCEE_SCALE_FACTOR                                                         
%FORMAT(5E16.8)                                                                 
  1.20000000E+00  1.20000000E+00  1.20000000E+00  1.20000000E+00  1.20000000E+00
  1.20000000E+00  1.20000000E+00  1.20000000E+00  1.20000000E+00  1.20000000E+00
  1.20000000E+00  1.20000000E+00  1.20000000E+00  1.20000000E+00  1.20000000E+00
  1.20000000E+00  1.20000000E+00  1.20000000E+00  1.20000000E+00  1.20000000E+00
  1.20000000E+00  1.20000000E+00  1.20000000E+00  1.20000000E+00  1.20000000E+00
  1.20000000E+00  1.20000000E+00  1.20000000E+00  1.20000000E+00  1.20000000E+00
  1.20000000E+00  1.20000000E+00  1.20000000E+00  1.20000000E+00  1.20000000E+00
  1.20000000E+00  1.20000000E+00  1.20000000E+00  1.20000000E+00  1.20000000E+00
  1.20000000E+00  1.20000000E+00  1.20000000E+00  1.20000000E+00  1.20000000E+00
  1.20000000E+00  1.20000000E+00  1.20000000E+00  1.20000000E+00  1.20000000E+00
  1.20000000E+00  1.20000000E+00  1.20000000E+00  1.20000000E+00  1.20000000E+00
  1.20000000E+00  1.20000000E+00  1.20000000E+00  1.20000000E+00  1.20000000E+00
  1.20000000E+00  1.20000000E+00  1.20000000E+00  1.20000000E+00  1.20000000E+00
  1.20000000E+00  1.20000000E+00  1.20000000E+00  1.20000000E+00  1.20000000E+00
  1.20000000E+00  1.20000000E+00  1.20000000E+00  1.20000000E+00  1.20000000E+00
  1.20000000E+00  1.20000000E+00  1.20000000E+00  1.20000000E+00  1.20000000E+00
  1.20000000E+00  1.20000000E+00  1.20000000E+00  1.20000000E+00  1.20000000E+00
  1.20000000E+00  1.20000000E+00  1.20000000E+00  1.20000000E+00  1.20000000E+00
  1.20000000E+00  1.20000000E+00  1.20000000E+00  1.20000000E+00  1.20000000E+00
  1.20000000E+00  1.20000000E+00  1.20000000E+00  1.20000000E+00  0.00000000E+00
  0.00000000E+00  0.00000000E+00  0.00000000E+00
%FLAG SCNB_SCALE_FACTOR                                                         
%FORMAT(5E16.8)                                                                 
  2.00000000E+00  2.00000000E+00  2.00000000E+00  2.00000000E+00  2.00000000E+00
  2.00000000E+00  2.00000000E+00  2.00000000E+00  2.00000000E+00  2.00000000E+00
  2.00000000E+00  2.00000000E+00  2.00000000E+00  2.00000000E+00  2.00000000E+00
  2.00000000E+00  2.00000000E+00  2.00000000E+00  2.00000000E+00  2.00000000E+00
  2.00000000E+00  2.00000000E+00  2.00000000E+00  2.00000000E+00  2.00000000E+00
  2.00000000E+00  2.00000000E+00  2.00000000E+00  2.00000000E+00  2.00000000E+00
  2.00000000E+00  2.00000000E+00  2.00000000E+00  2.00000000E+00  2.00000000E+00
  2.00000000E+00  2.00000000E+00  2.00000000E+00  2.00000000E+00  2.00000000E+00
  2.00000000E+00  2.00000000E+00  2.00000000E+00  2.00000000E+00  2.00000000E+00
  2.00000000E+00  2.00000000E+00  2.00000000E+00  2.00000000E+00  2.00000000E+00
  2.00000000E+00  2.00000000E+00  2.00000000E+00  2.00000000E+00  2.00000000E+00
  2.00000000E+00  2.00000000E+00  2.00000000E+00  2.00000000E+00  2.00000000E+00
  2.00000000E+00  2.00000000E+00  2.00000000E+00  2.00000000E+00  2.00000000E+00
  2.00000000E+00  2.00000000E+00  2.00000000E+00  2.00000000E+00  2.00000000E+00
  2.00000000E+00  2.00000000E+00  2.00000000E+00  2.00000000E+00  2.00000000E+00
  2.00000000E+00  2.00000000E+00  2.00000000E+00  2.00000000E+00  2.00000000E+00
  2.00000000E+00  2.00000000E+00  2.00000000E+00  2.00000000E+00  2.00000000E+00
  2.00000000E+00  2.00000000E+00  2.00000000E+00  2.00000000E+00  2.00000000E+00
  2.00000000E+00  2.00000000E+00  2.00000000E+00  2.00000000E+00  2.00000000E+00
  2.00000000E+00  2.00000000E+00  2.00000000E+00  2.00000000E+00  0.00000000E+00
  0.00000000E+00  0.00000000E+00  0.00000000E+00
%FLAG SOLTY                                                                     
%FORMAT(5E16.8)                                                                 
  0.00000000E+00  0.00000000E+00  0.00000000E+00  0.00000000E+00  0.00000000E+00
  0.00000000E+00  0.00000000E+00  0.00000000E+00  0.00000000E+00  0.00000000E+00
  0.00000000E+00  0.00000000E+00  0.00000000E+00  0.00000000E+00  0.00000000E+00
  0.00000000E+00  0.00000000E+00  0.00000000E+00  0.00000000E+00  0.00000000E+00
  0.00000000E+00  0.00000000E+00  0.00000000E+00  0.00000000E+00  0.00000000E+00
  0.00000000E+00  0.00000000E+00
%FLAG LENNARD_JONES_ACOEF                                                       
%FORMAT(5E16.8)                                                                 
  9.44293233E+05  2.12601181E+03  1.39982777E-01  9.95480466E+05  2.56678134E+03
  1.04308023E+06  2.01791425E+04  9.14716912E+00  2.27401052E+04  2.01823541E+02
  8.82619071E+05  2.27577561E+03  9.24822270E+05  2.01619733E+04  8.19971662E+05
  6.06829342E+05  1.02595236E+03  6.47841731E+05  1.12780457E+04  5.74393458E+05
  3.79876399E+05  6.20665997E+04  5.94667300E+01  6.78771368E+04  8.79040886E+02
  6.01816484E+04  3.69471530E+04  3.25969625E+03  8.96776989E+04  1.07193646E+02
  9.71708117E+04  1.41077189E+03  8.61541883E+04  5.44261042E+04  4.98586848E+03
  7.51607703E+03  7.91627154E+04  8.90987508E+01  8.59947003E+04  1.21014911E+03
  7.62451550E+04  4.77908183E+04  4.33325458E+03  6.55825601E+03  5.71629601E+03
  7.44975864E+05  1.40467023E+03  7.91544157E+05  1.45985502E+04  7.01803794E+05
  4.71003287E+05  4.66922514E+04  6.82786631E+04  6.00750218E+04  5.81803229E+05
  0.00000000E+00  0.00000000E+00  0.00000000E+00  0.00000000E+00  0.00000000E+00
  0.00000000E+00  0.00000000E+00  0.00000000E+00  0.00000000E+00  0.00000000E+00
  0.00000000E+00  6.58473870E+04  6.63368273E+01  7.18621074E+04  9.55000044E+02
  6.37148278E+04  3.93690817E+04  3.50301067E+03  5.34045360E+03  4.64559155E+03
  4.96707306E+04  0.00000000E+00  3.76169105E+03  1.36919347E+05  1.25820601E+02
  1.49995867E+05  1.90132449E+03  1.32990267E+05  8.12116828E+04  7.11465296E+03
  1.09119307E+04  9.47658423E+03  1.02772745E+05  0.00000000E+00  7.65043029E+03
  1.55205818E+04  7.42364908E+05  1.52094041E+03  7.85890042E+05  1.51483906E+04
  6.96790708E+05  4.72934643E+05  4.75728872E+04  6.91773368E+04  6.09592309E+04
  5.82511344E+05  0.00000000E+00  5.05435913E+04  1.04820861E+05  5.81935564E+05
  0.00000000E+00  0.00000000E+00  0.00000000E+00  0.00000000E+00  0.00000000E+00
  0.00000000E+00  0.00000000E+00  0.00000000E+00  0.00000000E+00  0.00000000E+00
  0.00000000E+00  0.00000000E+00  0.00000000E+00  0.00000000E+00  0.00000000E+00
%FLAG LENNARD_JONES_BCOEF                                                       
%FORMAT(5E16.8)                                                                 
  8.01323529E+02  2.09604198E+01  9.37598976E-02  7.36907417E+02  2.06278363E+01
  6.75612247E+02  6.45756063E+01  7.57919667E-01  6.13981767E+01  3.56012899E+00
  6.53361429E+02  1.82891803E+01  5.99015525E+02  5.44372326E+01  5.31102864E+02
  6.77220874E+02  1.53505284E+01  6.26720080E+02  5.08951803E+01  5.55666448E+02
  5.64885984E+02  1.13252061E+02  1.93248820E+00  1.06076943E+02  7.42992380E+00
  9.40505980E+01  9.21192136E+01  1.43076527E+01  1.36131731E+02  2.59456373E+00
  1.26919150E+02  9.41257003E+00  1.12529845E+02  1.11805549E+02  1.76949863E+01
  2.17257828E+01  1.26451907E+02  2.33864085E+00  1.18043746E+02  8.61880722E+00
  1.04660679E+02  1.03580945E+02  1.63092814E+01  2.00642027E+01  1.85196588E+01
  7.50714425E+02  1.79702257E+01  6.93079947E+02  5.79323581E+01  6.14502845E+02
  6.29300710E+02  1.03606917E+02  1.25287818E+02  1.16187983E+02  6.99746810E+02
  0.00000000E+00  0.00000000E+00  0.00000000E+00  0.00000000E+00  0.00000000E+00
  0.00000000E+00  0.00000000E+00  0.00000000E+00  0.00000000E+00  0.00000000E+00
  0.00000000E+00  1.15327881E+02  2.01792524E+00  1.07908863E+02  7.65648470E+00
  9.56748258E+01  9.40124296E+01  1.46638650E+01  1.81057616E+01  1.66953734E+01
  1.05648788E+02  0.00000000E+00  1.50233639E+01  2.58405233E+02  4.31824675E+00
  2.42242668E+02  1.67864823E+01  2.14778698E+02  2.09807371E+02  3.24719551E+01
  4.02144725E+01  3.70514656E+01  2.36133213E+02  0.00000000E+00  3.32906603E+01
  7.36779156E+01  6.90894667E+02  1.72393904E+01  6.36687196E+02  5.44062826E+01
  5.64503554E+02  5.81361517E+02  9.64152120E+01  1.16264660E+02  1.07902982E+02
  6.45512297E+02  0.00000000E+00  9.82532117E+01  2.19857570E+02  5.94825035E+02
  0.00000000E+00  0.00000000E+00  0.00000000E+00  0.00000000E+00  0.00000000E+00
  0.00000000E+00  0.00000000E+00  0.00000000E+00  0.00000000E+00  0.00000000E+00
  0.00000000E+00  0.00000000E+00  0.00000000E+00  0.00000000E+00  0.00000000E+00
%FLAG BONDS_INC_HYDROGEN                                                        
%FORMAT(10I8)                                                                   
      12      15       3      12      18       3       0       3       5       0
       6       5       0       9       5      78      81       7      72      75
       7      66      69       9      57      60       7      51      54       7
      39      42      12      39      45      12      33      36      14      27
      30      16     102     105      19     102     108      19      96      99
      14      90      93      16     156     159      14     147     150      12
     147     153      12     138     141      12     138     144      12     129
     132      23     129     135      23     189     192      19     189     195
      19     180     183      19     180     186      19     174     177      14
     168     171      16     243     246       9     231     234      12     231
     237      12     231     240      12     225     228      26     219     222
      14     213     216      16     261     264      14     261     267      14
     255     258      16     306     309       9     294     297      12     294
     300      12     294     303      12     288     291      26     282     285
      14     276     279      16     375     378       7     369     372       7
     363     366       7     357     360       7     348     351      33     342
     345      35     330     333      12     330     336      12     324     327
      14     318     321      16     396     399      14     396     402      14
     390     393      16     423     426      41     420     423      42     420
     426      42     432     435      41     429     432      42     429     435
      42     441     444      41     438     441      42     438     444      42
     450     453      41     447     450      42     447     453      42     459
     462      41     456     459      42     456     462      42     468     471
      41     465     468      42     465     471      42     477     480      41
     474     477      42     474     480      42     486     489      41     483
     486      42     483     489      42     495     498      41     492     495
      42     492     498      42     504     507      41     501     504      42
     501     507      42     513     516      41     510     513      42     510
     516      42     522     525      41     519     522      42     519     525
      42     531     534      41     528     531      42     528     534      42
     540     543      41     537     540      42     537     543      42     549
     552      41     546     549      42     546     552      42     558     561
      41     555     558      42     555     561      42     567     570      41
     564     567      42     564     570      42     576     579      41     573
     576      42     573     579      42     585     588      41     582     585
      42     582     588      42     594     597      41     591     594      42
     591     597      42     603     606      41     600     603      42     600
     606      42     612     615      41     609     612      42     609     615
      42     621     624      41     618     621      42     618     624      42
     630     633      41     627     630      42     627     633      42     639
     642      41     636     639      42     636     642      42     648     651
      41     645     648      42     645     651      42     657     660      41
     654     657      42     654     660      42     666     669      41     663
     666      42     663     669      42     675     678      41     672     675
      42     672     678      42     684     687      41     681     684      42
     681     687      42     693     696      41     690     693      42     690
     696      42     702     705      41     699     702      42     699     705
      42     711     714      41     708     711      42     708     714      42
     720     723      41     717     720      42     717     723      42     729
     732      41     726     729      42     726     732      42     738     741
      41     735     738      42     735     741      42     747     750      41
     744     747      42     744     750      42     756     759      41     753
     756      42     753     759      42     765     768      41     762     765
      42     762     768      42     774     777      41     771     774      42
     771     777      42     783     786      41     780     783      42     780
     786      42     792     795      41     789     792      42     789     795
      42     801     804      41     798     801      42     798     804      42
     810     813      41     807     810      42     807     813      42     819
     822      41     816     819      42     816     822      42     828     831
      41     825     828      42     825     831      42     837     840      41
     834     837      42     834     840      42     846     849      41     843
     846      42     843     849      42     855     858      41     852     855
      42     852     858      42     864     867      41     861     864      42
     861     867      42     873     876      41     870     873      42     870
     876      42     882     885      41     879     882      42     879     885
      42     891     894      41     888     891      42     888     894      42
     900     903      41     897     900      42     897     903      42     909
     912      41     906     909      42     906     912      42     918     921
      41     915     918      42     915     921      42     927     930      41
     924     927      42     924     930      42     936     939      41     933
     936      42     933     939      42     945     948      41     942     945
      42     942     948      42     954     957      41     951     954      42
     951     957      42     963     966      41     960     963      42     960
     966      42     972     975      41     969     972      42     969     975
      42     981     984      41     978     981      42     978     984      42
     990     993      41     987     990      42     987     993      42     999
    1002      41     996     999      42     996    1002      42    1008    1011
      41    1005    1008      42    1005    1011      42    1017    1020      41
    1014    1017      42    1014    1020      42    1026    1029      41    1023
    1026      42    1023    1029      42    1035    1038      41    1032    1035
      42    1032    1038      42    1044    1047      41    1041    1044      42
    1041    1047      42    1053    1056      41    1050    1053      42    1050
    1056      42    1062    1065      41    1059    1062      42    1059    1065
      42    1071    1074      41    1068    1071      42    1068    1074      42
    1080    1083      41    1077    1080      42    1077    1083      42    1089
    1092      41    1086    1089      42    1086    1092      42    1098    1101
      41    1095    1098      42    1095    1101      42    1107    1110      41
    1104    1107      42    1104    1110      42    1116    1119      41    1113
    1116      42    1113    1119      42    1125    1128      41    1122    1125
      42    1122    1128      42    1134    1137      41    1131    1134      42
    1131    1137      42    1143    1146      41    1140    1143      42    1140
    1146      42    1152    1155      41    1149    1152      42    1149    1155
      42    1161    1164      41    1158    1161      42    1158    1164      42
    1170    1173      41    1167    1170      42    1167    1173      42    1179
    1182      41    1176    1179      42    1176    1182      42    1188    1191
      41    1185    1188      42    1185    1191      42    1197    1200      41
    1194    1197      42    1194    1200      42    1206    1209      41    1203
    1206      42    1203    1209      42    1215    1218      41    1212    1215
      42    1212    1218      42    1224    1227      41    1221    1224      42
    1221    1227      42    1233    1236      41    1230    1233      42    1230
    1236      42    1242    1245      41    1239    1242      42    1239    1245
      42    1251    1254      41    1248    1251      42    1248    1254      42
    1260    1263      41    1257    1260      42    1257    1263      42    1269
    1272      41    1266    1269      42    1266    1272      42    1278    1281
      41    1275    1278      42    1275    1281      42    1287    1290      41
    1284    1287      42    1284    1290      42    1296    1299      41    1293
    1296      42    1293    1299      42    1305    1308      41    1302    1305
      42    1302    1308      42    1314    1317      41    1311    1314      42
    1311    1317      42    1323    1326      41    1320    1323      42    1320
    1326      42    1332    1335      41    1329    1332      42    1329    1335
      42    1341    1344      41    1338    1341      42    1338    1344      42
    1350    1353      41    1347    1350      42    1347    1353      42    1359
    1362      41    1356    1359      42    1356    1362      42    1368    1371
      41    1365    1368      42    1365    1371      42    1377    1380      41
    1374    1377      42    1374    1380      42    1386    1389      41    1383
    1386      42    1383    1389      42    1395    1398      41    1392    1395
      42    1392    1398      42    1404    1407      41    1401    1404      42
    1401    1407      42    1413    1416      41    1410    1413      42    1410
    1416      42    1422    1425      41    1419    1422      42    1419    1425
      42    1431    1434      41    1428    1431      42    1428    1434      42
    1440    1443      41    1437    1440      42    1437    1443      42    1449
    1452      41    1446    1449      42    1446    1452      42    1458    1461
      41    1455    1458      42    1455    1461      42    1467    1470      41
    1464    1467      42    1464    1470      42    1476    1479      41    1473
    1476      42    1473    1479      42    1485    1488      41    1482    1485
      42    1482    1488      42    1494    1497      41    1491    1494      42
    1491    1497      42    1503    1506      41    1500    1503      42    1500
    1506      42    1512    1515      41    1509    1512      42    1509    1515
      42    1521    1524      41    1518    1521      42    1518    1524      42
    1530    1533      41    1527    1530      42    1527    1533      42    1539
    1542      41    1536    1539      42    1536    1542      42    1548    1551
      41    1545    1548      42    1545    1551      42    1557    1560      41
    1554    1557      42    1554    1560      42    1566    1569      41    1563
    1566      42    1563    1569      42    1575    1578      41    1572    1575
      42    1572    1578      42    1584    1587      41    1581    1584      42
    1581    1587      42    1593    1596      41    1590    1593      42    1590
    1596      42    1602    1605      41    1599    1602      42    1599    1605
      42    1611    1614      41    1608    1611      42    1608    1614      42
    1620    1623      41    1617    1620      42    1617    1623      42    1629
    1632      41    1626    1629      42    1626    1632      42    1638    1641
      41    1635    1638      42    1635    1641      42    1647    1650      41
    1644    1647      42    1644    1650      42    1656    1659      41    1653
    1656      42    1653    1659      42    1665    1668      41    1662    1665
      42    1662    1668      42    1674    1677      41    1671    1674      42
    1671    1677      42    1683    1686      41    1680    1683      42    1680
    1686      42    1692    1695      41    1689    1692      42    1689    1695
      42    1701    1704      41    1698    1701      42    1698    1704      42
    1710    1713      41    1707    1710      42    1707    1713      42    1719
    1722      41    1716    1719      42    1716    1722      42    1728    1731
      41    1725    1728      42    1725    1731      42    1737    1740      41
    1734    1737      42    1734    1740      42    1746    1749      41    1743
    1746      42    1743    1749      42    1755    1758      41    1752    1755
      42    1752    1758      42    1764    1767      41    1761    1764      42
    1761    1767      42    1773    1776      41    1770    1773      42    1770
    1776      42    1782    1785      41    1779    1782      42    1779    1785
      42    1791    1794      41    1788    1791      42    1788    1794      42
    1800    1803      41    1797    1800      42    1797    1803      42    1809
    1812      41    1806    1809      42    1806    1812      42    1818    1821
      41    1815    1818      42    1815    1821      42    1827    1830      41
    1824    1827      42    1824    1830      42    1836    1839      41    1833
    1836      42    1833    1839      42    1845    1848      41    1842    1845
      42    1842    1848      42    1854    1857      41    1851    1854      42
    1851    1857      42    1863    1866      41    1860    1863      42    1860
    1866      42    1872    1875      41    1869    1872      42    1869    1875
      42    1881    1884      41    1878    1881      42    1878    1884      42
    1890    1893      41    1887    1890      42    1887    1893      42    1899
    1902      41    1896    1899      42    1896    1902      42    1908    1911
      41    1905    1908      42    1905    1911      42    1917    1920      41
    1914    1917      42    1914    1920      42    1926    1929      41    1923
    1926      42    1923    1929      42    1935    1938      41    1932    1935
      42    1932    1938      42    1944    1947      41    1941    1944      42
    1941    1947      42    1953    1956      41    1950    1953      42    1950
    1956      42    1962    1965      41    1959    1962      42    1959    1965
      42    1971    1974      41    1968    1971      42    1968    1974      42
    1980    1983      41    1977    1980      42    1977    1983      42    1989
    1992      41    1986    1989      42    1986    1992      42    1998    2001
      41    1995    1998      42    1995    2001      42    2007    2010      41
    2004    2007      42    2004    2010      42    2016    2019      41    2013
    2016      42    2013    2019      42    2025    2028      41    2022    2025
      42    2022    2028      42    2034    2037      41    2031    2034      42
    2031    2037      42    2043    2046      41    2040    2043      42    2040
    2046      42    2052    2055      41    2049    2052      42    2049    2055
      42    2061    2064      41    2058    2061      42    2058    2064      42
    2070    2073      41    2067    2070      42    2067    2073      42    2079
    2082      41    2076    2079      42    2076    2082      42    2088    2091
      41    2085    2088      42    2085    2091      42    2097    2100      41
    2094    2097      42    2094    2100      42    2106    2109      41    2103
    2106      42    2103    2109      42    2115    2118      41    2112    2115
      42    2112    2118      42    2124    2127      41    2121    2124      42
    2121    2127      42    2133    2136      41    2130    2133      42    2130
    2136      42    2142    2145      41    2139    2142      42    2139    2145
      42    2151    2154      41    2148    2151      42    2148    2154      42
    2160    2163      41    2157    2160      42    2157    2163      42    2169
    2172      41    2166    2169      42    2166    2172      42    2178    2181
      41    2175    2178      42    2175    2181      42    2187    2190      41
    2184    2187      42    2184    2190      42    2196    2199      41    2193
    2196      42    2193    2199      42    2205    2208      41    2202    2205
      42    2202    2208      42    2214    2217      41    2211    2214      42
    2211    2217      42    2223    2226      41    2220    2223      42    2220
    2226      42    2232    2235      41    2229    2232      42    2229    2235
      42    2241    2244      41    2238    2241      42    2238    2244      42
    2250    2253      41    2247    2250      42    2247    2253      42    2259
    2262      41    2256    2259      42    2256    2262      42    2268    2271
      41    2265    2268      42    2265    2271      42    2277    2280      41
    2274    2277      42    2274    2280      42    2286    2289      41    2283
    2286      42    2283    2289      42    2295    2298      41    2292    2295
      42    2292    2298      42    2304    2307      41    2301    2304      42
    2301    2307      42    2313    2316      41    2310    2313      42    2310
    2316      42    2322    2325      41    2319    2322      42    2319    2325
      42    2331    2334      41    2328    2331      42    2328    2334      42
    2340    2343      41    2337    2340      42    2337    2343      42    2349
    2352      41    2346    2349      42    2346    2352      42    2358    2361
      41    2355    2358      42    2355    2361      42    2367    2370      41
    2364    2367      42    2364    2370      42    2376    2379      41    2373
    2376      42    2373    2379      42    2385    2388      41    2382    2385
      42    2382    2388      42    2394    2397      41    2391    2394      42
    2391    2397      42    2403    2406      41    2400    2403      42    2400
    2406      42    2412    2415      41    2409    2412      42    2409    2415
      42    2421    2424      41    2418    2421      42    2418    2424      42
    2430    2433      41    2427    2430      42    2427    2433      42    2439
    2442      41    2436    2439      42    2436    2442      42    2448    2451
      41    2445    2448      42    2445    2451      42    2457    2460      41
    2454    2457      42    2454    2460      42    2466    2469      41    2463
    2466      42    2463    2469      42    2475    2478      41    2472    2475
      42    2472    2478      42    2484    2487      41    2481    2484      42
    2481    2487      42    2493    2496      41    2490    2493      42    2490
    2496      42    2502    2505      41    2499    2502      42    2499    2505
      42    2511    2514      41    2508    2511      42    2508    2514      42
    2520    2523      41    2517    2520      42    2517    2523      42    2529
    2532      41    2526    2529      42    2526    2532      42    2538    2541
      41    2535    2538      42    2535    2541      42    2547    2550      41
    2544    2547      42    2544    2550      42    2556    2559      41    2553
    2556      42    2553    2559      42    2565    2568      41    2562    2565
      42    2562    2568      42    2574    2577      41    2571    2574      42
    2571    2577      42    2583    2586      41    2580    2583      42    2580
    2586      42    2592    2595      41    2589    2592      42    2589    2595
      42    2601    2604      41    2598    2601      42    2598    2604      42
    2610    2613      41    2607    2610      42    2607    2613      42    2619
    2622      41    2616    2619      42    2616    2622      42    2628    2631
      41    2625    2628      42    2625    2631      42    2637    2640      41
    2634    2637      42    2634    2640      42    2646    2649      41    2643
    2646      42    2643    2649      42    2655    2658      41    2652    2655
      42    2652    2658      42    2664    2667      41    2661    2664      42
    2661    2667      42    2673    2676      41    2670    2673      42    2670
    2676      42    2682    2685      41    2679    2682      42    2679    2685
      42    2691    2694      41    2688    2691      42    2688    2694      42
    2700    2703      41    2697    2700      42    2697    2703      42    2709
    2712      41    2706    2709      42    2706    2712      42    2718    2721
      41    2715    2718      42    2715    2721      42    2727    2730      41
    2724    2727      42    2724    2730      42    2736    2739      41    2733
    2736      42    2733    2739      42    2745    2748      41    2742    2745
      42    2742    2748      42    2754    2757      41    2751    2754      42
    2751    2757      42    2763    2766      41    2760    2763      42    2760
    2766      42    2772    2775      41    2769    2772      42    2769    2775
      42    2781    2784      41    2778    2781      42    2778    2784      42
    2790    2793      41    2787    2790      42    2787    2793      42    2799
    2802      41    2796    2799      42    2796    2802      42    2808    2811
      41    2805    2808      42    2805    2811      42    2817    2820      41
    2814    2817      42    2814    2820      42    2826    2829      41    2823
    2826      42    2823    2829      42    2835    2838      41    2832    2835
      42    2832    2838      42    2844    2847      41    2841    2844      42
    2841    2847      42    2853    2856      41    2850    2853      42    2850
    2856      42    2862    2865      41    2859    2862      42    2859    2865
      42    2871    2874      41    2868    2871      42    2868    2874      42
    2880    2883      41    2877    2880      42    2877    2883      42    2889
    2892      41    2886    2889      42    2886    2892      42    2898    2901
      41    2895    2898      42    2895    2901      42    2907    2910      41
    2904    2907      42    2904    2910      42    2916    2919      41    2913
    2916      42    2913    2919      42    2925    2928      41    2922    2925
      42    2922    2928      42    2934    2937      41    2931    2934      42
    2931    2937      42    2943    2946      41    2940    2943      42    2940
    2946      42    2952    2955      41    2949    2952      42    2949    2955
      42    2961    2964      41    2958    2961      42    2958    2964      42
    2970    2973      41    2967    2970      42    2967    2973      42    2979
    2982      41    2976    2979      42    2976    2982      42    2988    2991
      41    2985    2988      42    2985    2991      42    2997    3000      41
    2994    2997      42    2994    3000      42    3006    3009      41    3003
    3006      42    3003    3009      42    3015    3018      41    3012    3015
      42    3012    3018      42    3024    3027      41    3021    3024      42
    3021    3027      42    3033    3036      41    3030    3033      42    3030
    3036      42    3042    3045      41    3039    3042      42    3039    3045
      42    3051    3054      41    3048    3051      42    3048    3054      42
    3060    3063      41    3057    3060      42    3057    3063      42    3069
    3072      41    3066    3069      42    3066    3072      42    3078    3081
      41    3075    3078      42    3075    3081      42    3087    3090      41
    3084    3087      42    3084    3090      42    3096    3099      41    3093
    3096      42    3093    3099      42    3105    3108      41    3102    3105
      42    3102    3108      42    3114    3117      41    3111    3114      42
    3111    3117      42    3123    3126      41    3120    3123      42    3120
    3126      42    3132    3135      41    3129    3132      42    3129    3135
      42    3141    3144      41    3138    3141      42    3138    3144      42
    3150    3153      41    3147    3150      42    3147    3153      42    3159
    3162      41    3156    3159      42    3156    3162      42    3168    3171
      41    3165    3168      42    3165    3171      42    3177    3180      41
    3174    3177      42    3174    3180      42    3186    3189      41    3183
    3186      42    3183    3189      42    3195    3198      41    3192    3195
      42    3192    3198      42    3204    3207      41    3201    3204      42
    3201    3207      42    3213    3216      41    3210    3213      42    3210
    3216      42    3222    3225      41    3219    3222      42    3219    3225
      42    3231    3234      41    3228    3231      42    3228    3234      42
    3240    3243      41    3237    3240      42    3237    3243      42    3249
    3252      41    3246    3249      42    3246    3252      42    3258    3261
      41    3255    3258      42    3255    3261      42    3267    3270      41
    3264    3267      42    3264    3270      42    3276    3279      41    3273
    3276      42    3273    3279      42    3285    3288      41    3282    3285
      42    3282    3288      42    3294    3297      41    3291    3294      42
    3291    3297      42    3303    3306      41    3300    3303      42    3300
    3306      42    3312    3315      41    3309    3312      42    3309    3315
      42    3321    3324      41    3318    3321      42    3318    3324      42
    3330    3333      41    3327    3330      42    3327    3333      42    3339
    3342      41    3336    3339      42    3336    3342      42    3348    3351
      41    3345    3348      42    3345    3351      42    3357    3360      41
    3354    3357      42    3354    3360      42    3366    3369      41    3363
    3366      42    3363    3369      42    3375    3378      41    3372    3375
      42    3372    3378      42    3384    3387      41    3381    3384      42
    3381    3387      42    3393    3396      41    3390    3393      42    3390
    3396      42    3402    3405      41    3399    3402      42    3399    3405
      42    3411    3414      41    3408    3411      42    3408    3414      42
    3420    3423      41    3417    3420      42    3417    3423      42    3429
    3432      41    3426    3429      42    3426    3432      42    3438    3441
      41    3435    3438      42    3435    3441      42    3447    3450      41
    3444    3447      42    3444    3450      42    3456    3459      41    3453
    3456      42    3453    3459      42    3465    3468      41    3462    3465
      42    3462    3468      42    3474    3477      41    3471    3474      42
    3471    3477      42    3483    3486      41    3480    3483      42    3480
    3486      42    3492    3495      41    3489    3492      42    3489    3495
      42    3501    3504      41    3498    3501      42    3498    3504      42
    3510    3513      41    3507    3510      42    3507    3513      42    3519
    3522      41    3516    3519      42    3516    3522      42    3528    3531
      41    3525    3528      42    3525    3531      42    3537    3540      41
    3534    3537      42    3534    3540      42    3546    3549      41    3543
    3546      42    3543    3549      42    3555    3558      41    3552    3555
      42    3552    3558      42    3564    3567      41    3561    3564      42
    3561    3567      42    3573    3576      41    3570    3573      42    3570
    3576      42    3582    3585      41    3579    3582      42    3579    3585
      42    3591    3594      41    3588    3591      42    3588    3594      42
    3600    3603      41    3597    3600      42    3597    3603      42    3609
    3612      41    3606    3609      42    3606    3612      42    3618    3621
      41    3615    3618      42    3615    3621      42    3627    3630      41
    3624    3627      42    3624    3630      42    3636    3639      41    3633
    3636      42    3633    3639      42    3645    3648      41    3642    3645
      42    3642    3648      42    3654    3657      41    3651    3654      42
    3651    3657      42    3663    3666      41    3660    3663      42    3660
    3666      42    3672    3675      41    3669    3672      42    3669    3675
      42    3681    3684      41    3678    3681      42    3678    3684      42
    3690    3693      41    3687    3690      42    3687    3693      42    3699
    3702      41    3696    3699      42    3696    3702      42    3708    3711
      41    3705    3708      42    3705    3711      42    3717    3720      41
    3714    3717      42    3714    3720      42    3726    3729      41    3723
    3726      42    3723    3729      42    3735    3738      41    3732    3735
      42    3732    3738      42    3744    3747      41    3741    3744      42
    3741    3747      42    3753    3756      41    3750    3753      42    3750
    3756      42    3762    3765      41    3759    3762      42    3759    3765
      42    3771    3774      41    3768    3771      42    3768    3774      42
    3780    3783      41    3777    3780      42    3777    3783      42    3789
    3792      41    3786    3789      42    3786    3792      42    3798    3801
      41    3795    3798      42    3795    3801      42    3807    3810      41
    3804    3807      42    3804    3810      42    3816    3819      41    3813
    3816      42    3813    3819      42    3825    3828      41    3822    3825
      42    3822    3828      42    3834    3837      41    3831    3834      42
    3831    3837      42    3843    3846      41    3840    3843      42    3840
    3846      42    3852    3855      41    3849    3852      42    3849    3855
      42    3861    3864      41    3858    3861      42    3858    3864      42
    3870    3873      41    3867    3870      42    3867    3873      42    3879
    3882      41    3876    3879      42    3876    3882      42    3888    3891
      41    3885    3888      42    3885    3891      42    3897    3900      41
    3894    3897      42    3894    3900      42    3906    3909      41    3903
    3906      42    3903    3909      42    3915    3918      41    3912    3915
      42    3912    3918      42    3924    3927      41    3921    3924      42
    3921    3927      42    3933    3936      41    3930    3933      42    3930
    3936      42    3942    3945      41    3939    3942      42    3939    3945
      42    3951    3954      41    3948    3951      42    3948    3954      42
    3960    3963      41    3957    3960      42    3957    3963      42    3969
    3972      41    3966    3969      42    3966    3972      42    3978    3981
      41    3975    3978      42    3975    3981      42    3987    3990      41
    3984    3987      42    3984    3990      42    3996    3999      41    3993
    3996      42    3993    3999      42    4005    4008      41    4002    4005
      42    4002    4008      42    4014    4017      41    4011    4014      42
    4011    4017      42    4023    4026      41    4020    4023      42    4020
    4026      42    4032    4035      41    4029    4032      42    4029    4035
      42    4041    4044      41    4038    4041      42    4038    4044      42
    4050    4053      41    4047    4050      42    4047    4053      42    4059
    4062      41    4056    4059      42    4056    4062      42    4068    4071
      41    4065    4068      42    4065    4071      42    4077    4080      41
    4074    4077      42    4074    4080      42    4086    4089      41    4083
    4086      42    4083    4089      42    4095    4098      41    4092    4095
      42    4092    4098      42    4104    4107      41    4101    4104      42
    4101    4107      42    4113    4116      41    4110    4113      42    4110
    4116      42    4122    4125      41    4119    4122      42    4119    4125
      42    4131    4134      41    4128    4131      42    4128    4134      42
    4140    4143      41    4137    4140      42    4137    4143      42    4149
    4152      41    4146    4149      42    4146    4152      42    4158    4161
      41    4155    4158      42    4155    4161      42    4167    4170      41
    4164    4167      42    4164    4170      42    4176    4179      41    4173
    4176      42    4173    4179      42    4185    4188      41    4182    4185
      42    4182    4188      42    4194    4197      41    4191    4194      42
    4191    4197      42    4203    4206      41    4200    4203      42    4200
    4206      42    4212    4215      41    4209    4212      42    4209    4215
      42    4221    4224      41    4218    4221      42    4218    4224      42
    4230    4233      41    4227    4230      42    4227    4233      42    4239
    4242      41    4236    4239      42    4236    4242      42    4248    4251
      41    4245    4248      42    4245    4251      42    4257    4260      41
    4254    4257      42    4254    4260      42    4266    4269      41    4263
    4266      42    4263    4269      42    4275    4278      41    4272    4275
      42    4272    4278      42    4284    4287      41    4281    4284      42
    4281    4287      42    4293    4296      41    4290    4293      42    4290
    4296      42    4302    4305      41    4299    4302      42    4299    4305
      42    4311    4314      41    4308    4311      42    4308    4314      42
    4320    4323      41    4317    4320      42    4317    4323      42    4329
    4332      41    4326    4329      42    4326    4332      42    4338    4341
      41    4335    4338      42    4335    4341      42    4347    4350      41
    4344    4347      42    4344    4350      42    4356    4359      41    4353
    4356      42    4353    4359      42    4365    4368      41    4362    4365
      42    4362    4368      42    4374    4377      41    4371    4374      42
    4371    4377      42    4383    4386      41    4380    4383      42    4380
    4386      42    4392    4395      41    4389    4392      42    4389    4395
      42    4401    4404      41    4398    4401      42    4398    4404      42
    4410    4413      41    4407    4410      42    4407    4413      42    4419
    4422      41    4416    4419      42    4416    4422      42    4428    4431
      41    4425    4428      42    4425    4431      42    4437    4440      41
    4434    4437      42    4434    4440      42    4446    4449      41    4443
    4446      42    4443    4449      42    4455    4458      41    4452    4455
      42    4452    4458      42    4464    4467      41    4461    4464      42
    4461    4467      42    4473    4476      41    4470    4473      42    4470
    4476      42    4482    4485      41    4479    4482      42    4479    4485
      42    4491    4494      41    4488    4491      42    4488    4494      42
    4500    4503      41    4497    4500      42    4497    4503      42    4509
    4512      41    4506    4509      42    4506    4512      42    4518    4521
      41    4515    4518      42    4515    4521      42    4527    4530      41
    4524    4527      42    4524    4530      42    4536    4539      41    4533
    4536      42    4533    4539      42    4545    4548      41    4542    4545
      42    4542    4548      42    4554    4557      41    4551    4554      42
    4551    4557      42    4563    4566      41    4560    4563      42    4560
    4566      42    4572    4575      41    4569    4572      42    4569    4575
      42    4581    4584      41    4578    4581      42    4578    4584      42
    4590    4593      41    4587    4590      42    4587    4593      42    4599
    4602      41    4596    4599      42    4596    4602      42    4608    4611
      41    4605    4608      42    4605    4611      42    4617    4620      41
    4614    4617      42    4614    4620      42    4626    4629      41    4623
    4626      42    4623    4629      42    4635    4638      41    4632    4635
      42    4632    4638      42    4644    4647      41    4641    4644      42
    4641    4647      42    4653    4656      41    4650    4653      42    4650
    4656      42    4662    4665      41    4659    4662      42    4659    4665
      42    4671    4674      41    4668    4671      42    4668    4674      42
    4680    4683      41    4677    4680      42    4677    4683      42    4689
    4692      41    4686    4689      42    4686    4692      42    4698    4701
      41    4695    4698      42    4695    4701      42    4707    4710      41
    4704    4707      42    4704    4710      42    4716    4719      41    4713
    4716      42    4713    4719      42    4725    4728      41    4722    4725
      42    4722    4728      42    4734    4737      41    4731    4734      42
    4731    4737      42    4743    4746      41    4740    4743      42    4740
    4746      42    4752    4755      41    4749    4752      42    4749    4755
      42    4761    4764      41    4758    4761      42    4758    4764      42
    4770    4773      41    4767    4770      42    4767    4773      42    4779
    4782      41    4776    4779      42    4776    4782      42    4788    4791
      41    4785    4788      42    4785    4791      42    4797    4800      41
    4794    4797      42    4794    4800      42    4806    4809      41    4803
    4806      42    4803    4809      42    4815    4818      41    4812    4815
      42    4812    4818      42    4824    4827      41    4821    4824      42
    4821    4827      42    4833    4836      41    4830    4833      42    4830
    4836      42    4842    4845      41    4839    4842      42    4839    4845
      42    4851    4854      41    4848    4851      42    4848    4854      42
    4860    4863      41    4857    4860      42    4857    4863      42    4869
    4872      41    4866    4869      42    4866    4872      42    4878    4881
      41    4875    4878      42    4875    4881      42    4887    4890      41
    4884    4887      42    4884    4890      42    4896    4899      41    4893
    4896      42    4893    4899      42    4905    4908      41    4902    4905
      42    4902    4908      42    4914    4917      41    4911    4914      42
    4911    4917      42    4923    4926      41    4920    4923      42    4920
    4926      42    4932    4935      41    4929    4932      42    4929    4935
      42    4941    4944      41    4938    4941      42    4938    4944      42
    4950    4953      41    4947    4950      42    4947    4953      42    4959
    4962      41    4956    4959      42    4956    4962      42    4968    4971
      41    4965    4968      42    4965    4971      42    4977    4980      41
    4974    4977      42    4974    4980      42    4986    4989      41    4983
    4986      42    4983    4989      42    4995    4998      41    4992    4995
      42    4992    4998      42    5004    5007      41    5001    5004      42
    5001    5007      42    5013    5016      41    5010    5013      42    5010
    5016      42    5022    5025      41    5019    5022      42    5019    5025
      42    5031    5034      41    5028    5031      42    5028    5034      42
    5040    5043      41    5037    5040      42    5037    5043      42    5049
    5052      41    5046    5049      42    5046    5052      42    5058    5061
      41    5055    5058      42    5055    5061      42    5067    5070      41
    5064    5067      42    5064    5070      42    5076    5079      41    5073
    5076      42    5073    5079      42    5085    5088      41    5082    5085
      42    5082    5088      42    5094    5097      41    5091    5094      42
    5091    5097      42    5103    5106      41    5100    5103      42    5100
    5106      42    5112    5115      41    5109    5112      42    5109    5115
      42    5121    5124      41    5118    5121      42    5118    5124      42
    5130    5133      41    5127    5130      42    5127    5133      42    5139
    5142      41    5136    5139      42    5136    5142      42    5148    5151
      41    5145    5148      42    5145    5151      42    5157    5160      41
    5154    5157      42    5154    5160      42    5166    5169      41    5163
    5166      42    5163    5169      42    5175    5178      41    5172    5175
      42    5172    5178      42    5184    5187      41    5181    5184      42
    5181    5187      42    5193    5196      41    5190    5193      42    5190
    5196      42    5202    5205      41    5199    5202      42    5199    5205
      42    5211    5214      41    5208    5211      42    5208    5214      42
    5220    5223      41    5217    5220      42    5217    5223      42    5229
    5232      41    5226    5229      42    5226    5232      42    5238    5241
      41    5235    5238      42    5235    5241      42    5247    5250      41
    5244    5247      42    5244    5250      42    5256    5259      41    5253
    5256      42    5253    5259      42    5265    5268      41    5262    5265
      42    5262    5268      42    5274    5277      41    5271    5274      42
    5271    5277      42    5283    5286      41    5280    5283      42    5280
    5286      42    5292    5295      41    5289    5292      42    5289    5295
      42    5301    5304      41    5298    5301      42    5298    5304      42
    5310    5313      41    5307    5310      42    5307    5313      42    5319
    5322      41    5316    5319      42    5316    5322      42    5328    5331
      41    5325    5328      42    5325    5331      42    5337    5340      41
    5334    5337      42    5334    5340      42    5346    5349      41    5343
    5346      42    5343    5349      42    5355    5358      41    5352    5355
      42    5352    5358      42    5364    5367      41    5361    5364      42
    5361    5367      42    5373    5376      41    5370    5373      42    5370
    5376      42    5382    5385      41    5379    5382      42    5379    5385
      42    5391    5394      41    5388    5391      42    5388    5394      42
    5400    5403      41    5397    5400      42    5397    5403      42    5409
    5412      41    5406    5409      42    5406    5412      42    5418    5421
      41    5415    5418      42    5415    5421      42    5427    5430      41
    5424    5427      42    5424    5430      42    5436    5439      41    5433
    5436      42    5433    5439      42    5445    5448      41    5442    5445
      42    5442    5448      42    5454    5457      41    5451    5454      42
    5451    5457      42    5463    5466      41    5460    5463      42    5460
    5466      42    5472    5475      41    5469    5472      42    5469    5475
      42    5481    5484      41    5478    5481      42    5478    5484      42
    5490    5493      41    5487    5490      42    5487    5493      42    5499
    5502      41    5496    5499      42    5496    5502      42    5508    5511
      41    5505    5508      42    5505    5511      42    5517    5520      41
    5514    5517      42    5514    5520      42    5526    5529      41    5523
    5526      42    5523    5529      42    5535    5538      41    5532    5535
      42    5532    5538      42    5544    5547      41    5541    5544      42
    5541    5547      42    5553    5556      41    5550    5553      42    5550
    5556      42    5562    5565      41    5559    5562      42    5559    5565
      42    5571    5574      41    5568    5571      42    5568    5574      42
    5580    5583      41    5577    5580      42    5577    5583      42    5589
    5592      41    5586    5589      42    5586    5592      42    5598    5601
      41    5595    5598      42    5595    5601      42    5607    5610      41
    5604    5607      42    5604    5610      42    5616    5619      41    5613
    5616      42    5613    5619      42    5625    5628      41    5622    5625
      42    5622    5628      42    5634    5637      41    5631    5634      42
    5631    5637      42    5643    5646      41    5640    5643      42    5640
    5646      42    5652    5655      41    5649    5652      42    5649    5655
      42    5661    5664      41    5658    5661      42    5658    5664      42
    5670    5673      41    5667    5670      42    5667    5673      42    5679
    5682      41    5676    5679      42    5676    5682      42    5688    5691
      41    5685    5688      42    5685    5691      42    5697    5700      41
    5694    5697      42    5694    5700      42    5706    5709      41    5703
    5706      42    5703    5709      42    5715    5718      41    5712    5715
      42    5712    5718      42    5724    5727      41    5721    5724      42
    5721    5727      42    5733    5736      41    5730    5733      42    5730
    5736      42    5742    5745      41    5739    5742      42    5739    5745
      42    5751    5754      41    5748    5751      42    5748    5754      42
    5760    5763      41    5757    5760      42    5757    5763      42    5769
    5772      41    5766    5769      42    5766    5772      42    5778    5781
      41    5775    5778      42    5775    5781      42    5787    5790      41
    5784    5787      42    5784    5790      42    5796    5799      41    5793
    5796      42    5793    5799      42    5805    5808      41    5802    5805
      42    5802    5808      42    5814    5817      41    5811    5814      42
    5811    5817      42    5823    5826      41    5820    5823      42    5820
    5826      42    5832    5835      41    5829    5832      42    5829    5835
      42    5841    5844      41    5838    5841      42    5838    5844      42
    5850    5853      41    5847    5850      42    5847    5853      42    5859
    5862      41    5856    5859      42    5856    5862      42    5868    5871
      41    5865    5868      42    5865    5871      42    5877    5880      41
    5874    5877      42    5874    5880      42    5886    5889      41    5883
    5886      42    5883    5889      42    5895    5898      41    5892    5895
      42    5892    5898      42    5904    5907      41    5901    5904      42
    5901    5907      42    5913    5916      41    5910    5913      42    5910
    5916      42    5922    5925      41    5919    5922      42    5919    5925
      42    5931    5934      41    5928    5931      42    5928    5934      42
    5940    5943      41    5937    5940      42    5937    5943      42    5949
    5952      41    5946    5949      42    5946    5952      42    5958    5961
      41    5955    5958      42    5955    5961      42    5967    5970      41
    5964    5967      42    5964    5970      42    5976    5979      41    5973
    5976      42    5973    5979      42    5985    5988      41    5982    5985
      42    5982    5988      42    5994    5997      41    5991    5994      42
    5991    5997      42    6003    6006      41    6000    6003      42    6000
    6006      42    6012    6015      41    6009    6012      42    6009    6015
      42    6021    6024      41    6018    6021      42    6018    6024      42
    6030    6033      41    6027    6030      42    6027    6033      42    6039
    6042      41    6036    6039      42    6036    6042      42    6048    6051
      41    6045    6048      42    6045    6051      42    6057    6060      41
    6054    6057      42    6054    6060      42    6066    6069      41    6063
    6066      42    6063    6069      42    6075    6078      41    6072    6075
      42    6072    6078      42    6084    6087      41    6081    6084      42
    6081    6087      42    6093    6096      41    6090    6093      42    6090
    6096      42    6102    6105      41    6099    6102      42    6099    6105
      42    6111    6114      41    6108    6111      42    6108    6114      42
    6120    6123      41    6117    6120      42    6117    6123      42    6129
    6132      41    6126    6129      42    6126    6132      42    6138    6141
      41    6135    6138      42    6135    6141      42    6147    6150      41
    6144    6147      42    6144    6150      42    6156    6159      41    6153
    6156      42    6153    6159      42    6165    6168      41    6162    6165
      42    6162    6168      42    6174    6177      41    6171    6174      42
    6171    6177      42    6183    6186      41    6180    6183      42    6180
    6186      42    6192    6195      41    6189    6192      42    6189    6195
      42    6201    6204      41    6198    6201      42    6198    6204      42
    6210    6213      41    6207    6210      42    6207    6213      42    6219
    6222      41    6216    6219      42    6216    6222      42    6228    6231
      41    6225    6228      42    6225    6231      42    6237    6240      41
    6234    6237      42    6234    6240      42    6246    6249      41    6243
    6246      42    6243    6249      42    6255    6258      41    6252    6255
      42    6252    6258      42    6264    6267      41    6261    6264      42
    6261    6267      42    6273    6276      41    6270    6273      42    6270
    6276      42    6282    6285      41    6279    6282      42    6279    6285
      42    6291    6294      41    6288    6291      42    6288    6294      42
    6300    6303      41    6297    6300      42    6297    6303      42    6309
    6312      41    6306    6309      42    6306    6312      42    6318    6321
      41    6315    6318      42    6315    6321      42    6327    6330      41
    6324    6327      42    6324    6330      42    6336    6339      41    6333
    6336      42    6333    6339      42    6345    6348      41    6342    6345
      42    6342    6348      42    6354    6357      41    6351    6354      42
    6351    6357      42    6363    6366      41    6360    6363      42    6360
    6366      42    6372    6375      41    6369    6372      42    6369    6375
      42    6381    6384      41    6378    6381      42    6378    6384      42
    6390    6393      41    6387    6390      42    6387    6393      42    6399
    6402      41    6396    6399      42    6396    6402      42    6408    6411
      41    6405    6408      42    6405    6411      42    6417    6420      41
    6414    6417      42    6414    6420      42    6426    6429      41    6423
    6426      42    6423    6429      42    6435    6438      41    6432    6435
      42    6432    6438      42    6444    6447      41    6441    6444      42
    6441    6447      42    6453    6456      41    6450    6453      42    6450
    6456      42    6462    6465      41    6459    6462      42    6459    6465
      42    6471    6474      41    6468    6471      42    6468    6474      42
    6480    6483      41    6477    6480      42    6477    6483      42    6489
    6492      41    6486    6489      42    6486    6492      42    6498    6501
      41    6495    6498      42    6495    6501      42    6507    6510      41
    6504    6507      42    6504    6510      42    6516    6519      41    6513
    6516      42    6513    6519      42    6525    6528      41    6522    6525
      42    6522    6528      42    6534    6537      41    6531    6534      42
    6531    6537      42    6543    6546      41    6540    6543      42    6540
    6546      42    6552    6555      41    6549    6552      42    6549    6555
      42    6561    6564      41    6558    6561      42    6558    6564      42
    6570    6573      41    6567    6570      42    6567    6573      42    6579
    6582      41    6576    6579      42    6576    6582      42    6588    6591
      41    6585    6588      42    6585    6591      42    6597    6600      41
    6594    6597      42    6594    6600      42    6606    6609      41    6603
    6606      42    6603    6609      42    6615    6618      41    6612    6615
      42    6612    6618      42    6624    6627      41    6621    6624      42
    6621    6627      42    6633    6636      41    6630    6633      42    6630
    6636      42    6642    6645      41    6639    6642      42    6639    6645
      42    6651    6654      41    6648    6651      42    6648    6654      42
    6660    6663      41    6657    6660      42    6657    6663      42    6669
    6672      41    6666    6669      42    6666    6672      42    6678    6681
      41    6675    6678      42    6675    6681      42    6687    6690      41
    6684    6687      42    6684    6690      42    6696    6699      41    6693
    6696      42    6693    6699      42    6705    6708      41    6702    6705
      42    6702    6708      42    6714    6717      41    6711    6714      42
    6711    6717      42    6723    6726      41    6720    6723      42    6720
    6726      42    6732    6735      41    6729    6732      42    6729    6735
      42    6741    6744      41    6738    6741      42    6738    6744      42
    6750    6753      41    6747    6750      42    6747    6753      42    6759
    6762      41    6756    6759      42    6756    6762      42    6768    6771
      41    6765    6768      42    6765    6771      42    6777    6780      41
    6774    6777      42    6774    6780      42    6786    6789      41    6783
    6786      42    6783    6789      42    6795    6798      41    6792    6795
      42    6792    6798      42    6804    6807      41    6801    6804      42
    6801    6807      42    6813    6816      41    6810    6813      42    6810
    6816      42    6822    6825      41    6819    6822      42    6819    6825
      42    6831    6834      41    6828    6831      42    6828    6834      42
    6840    6843      41    6837    6840      42    6837    6843      42    6849
    6852      41    6846    6849      42    6846    6852      42    6858    6861
      41    6855    6858      42    6855    6861      42    6867    6870      41
    6864    6867      42    6864    6870      42    6876    6879      41    6873
    6876      42    6873    6879      42    6885    6888      41    6882    6885
      42    6882    6888      42    6894    6897      41    6891    6894      42
    6891    6897      42    6903    6906      41    6900    6903      42    6900
    6906      42    6912    6915      41    6909    6912      42    6909    6915
      42    6921    6924      41    6918    6921      42    6918    6924      42
    6930    6933      41    6927    6930      42    6927    6933      42    6939
    6942      41    6936    6939      42    6936    6942      42    6948    6951
      41    6945    6948      42    6945    6951      42    6957    6960      41
    6954    6957      42    6954    6960      42    6966    6969      41    6963
    6966      42    6963    6969      42    6975    6978      41    6972    6975
      42    6972    6978      42    6984    6987      41    6981    6984      42
    6981    6987      42    6993    6996      41    6990    6993      42    6990
    6996      42    7002    7005      41    6999    7002      42    6999    7005
      42    7011    7014      41    7008    7011      42    7008    7014      42
    7020    7023      41    7017    7020      42    7017    7023      42    7029
    7032      41    7026    7029      42    7026    7032      42    7038    7041
      41    7035    7038      42    7035    7041      42    7047    7050      41
    7044    7047      42    7044    7050      42    7056    7059      41    7053
    7056      42    7053    7059      42    7065    7068      41    7062    7065
      42    7062    7068      42    7074    7077      41    7071    7074      42
    7071    7077      42    7083    7086      41    7080    7083      42    7080
    7086      42    7092    7095      41    7089    7092      42    7089    7095
      42    7101    7104      41    7098    7101      42    7098    7104      42
    7110    7113      41    7107    7110      42    7107    7113      42    7119
    7122      41    7116    7119      42    7116    7122      42    7128    7131
      41    7125    7128      42    7125    7131      42    7137    7140      41
    7134    7137      42    7134    7140      42    7146    7149      41    7143
    7146      42    7143    7149      42    7155    7158      41    7152    7155
      42    7152    7158      42    7164    7167      41    7161    7164      42
    7161    7167      42    7173    7176      41    7170    7173      42    7170
    7176      42    7182    7185      41    7179    7182      42    7179    7185
      42    7191    7194      41    7188    7191      42    7188    7194      42
    7200    7203      41    7197    7200      42    7197    7203      42    7209
    7212      41    7206    7209      42    7206    7212      42    7218    7221
      41    7215    7218      42    7215    7221      42    7227    7230      41
    7224    7227      42    7224    7230      42    7236    7239      41    7233
    7236      42    7233    7239      42    7245    7248      41    7242    7245
      42    7242    7248      42    7254    7257      41    7251    7254      42
    7251    7257      42    7263    7266      41    7260    7263      42    7260
    7266      42    7272    7275      41    7269    7272      42    7269    7275
      42    7281    7284      41    7278    7281      42    7278    7284      42
    7290    7293      41    7287    7290      42    7287    7293      42    7299
    7302      41    7296    7299      42    7296    7302      42    7308    7311
      41    7305    7308      42    7305    7311      42    7317    7320      41
    7314    7317      42    7314    7320      42    7326    7329      41    7323
    7326      42    7323    7329      42    7335    7338      41    7332    7335
      42    7332    7338      42    7344    7347      41    7341    7344      42
    7341    7347      42    7353    7356      41    7350    7353      42    7350
    7356      42    7362    7365      41    7359    7362      42    7359    7365
      42    7371    7374      41    7368    7371      42    7368    7374      42
    7380    7383      41    7377    7380      42    7377    7383      42    7389
    7392      41    7386    7389      42    7386    7392      42    7398    7401
      41    7395    7398      42    7395    7401      42    7407    7410      41
    7404    7407      42    7404    7410      42    7416    7419      41    7413
    7416      42    7413    7419      42    7425    7428      41    7422    7425
      42    7422    7428      42    7434    7437      41    7431    7434      42
    7431    7437      42    7443    7446      41    7440    7443      42    7440
    7446      42    7452    7455      41    7449    7452      42    7449    7455
      42    7461    7464      41    7458    7461      42    7458    7464      42
    7470    7473      41    7467    7470      42    7467    7473      42    7479
    7482      41    7476    7479      42    7476    7482      42    7488    7491
      41    7485    7488      42    7485    7491      42    7497    7500      41
    7494    7497      42    7494    7500      42    7506    7509      41    7503
    7506      42    7503    7509      42    7515    7518      41    7512    7515
      42    7512    7518      42    7524    7527      41    7521    7524      42
    7521    7527      42    7533    7536      41    7530    7533      42    7530
    7536      42    7542    7545      41    7539    7542      42    7539    7545
      42    7551    7554      41    7548    7551      42    7548    7554      42
    7560    7563      41    7557    7560      42    7557    7563      42    7569
    7572      41    7566    7569      42    7566    7572      42    7578    7581
      41    7575    7578      42    7575    7581      42    7587    7590      41
    7584    7587      42    7584    7590      42    7596    7599      41    7593
    7596      42    7593    7599      42    7605    7608      41    7602    7605
      42    7602    7608      42    7614    7617      41    7611    7614      42
    7611    7617      42    7623    7626      41    7620    7623      42    7620
    7626      42    7632    7635      41    7629    7632      42    7629    7635
      42    7641    7644      41    7638    7641      42    7638    7644      42
    7650    7653      41    7647    7650      42    7647    7653      42    7659
    7662      41    7656    7659      42    7656    7662      42    7668    7671
      41    7665    7668      42    7665    7671      42    7677    7680      41
    7674    7677      42    7674    7680      42    7686    7689      41    7683
    7686      42    7683    7689      42    7695    7698      41    7692    7695
      42    7692    7698      42    7704    7707      41    7701    7704      42
    7701    7707      42    7713    7716      41    7710    7713      42    7710
    7716      42    7722    7725      41    7719    7722      42    7719    7725
      42    7731    7734      41    7728    7731      42    7728    7734      42
    7740    7743      41    7737    7740      42    7737    7743      42    7749
    7752      41    7746    7749      42    7746    7752      42    7758    7761
      41    7755    7758      42    7755    7761      42    7767    7770      41
    7764    7767      42    7764    7770      42    7776    7779      41    7773
    7776      42    7773    7779      42    7785    7788      41    7782    7785
      42    7782    7788      42    7794    7797      41    7791    7794      42
    7791    7797      42    7803    7806      41    7800    7803      42    7800
    7806      42    7812    7815      41    7809    7812      42    7809    7815
      42    7821    7824      41    7818    7821      42    7818    7824      42
    7830    7833      41    7827    7830      42    7827    7833      42    7839
    7842      41    7836    7839      42    7836    7842      42    7848    7851
      41    7845    7848      42    7845    7851      42    7857    7860      41
    7854    7857      42    7854    7860      42    7866    7869      41    7863
    7866      42    7863    7869      42    7875    7878      41    7872    7875
      42    7872    7878      42    7884    7887      41    7881    7884      42
    7881    7887      42    7893    7896      41    7890    7893      42    7890
    7896      42    7902    7905      41    7899    7902      42    7899    7905
      42    7911    7914      41    7908    7911      42    7908    7914      42
    7920    7923      41    7917    7920      42    7917    7923      42    7929
    7932      41    7926    7929      42    7926    7932      42    7938    7941
      41    7935    7938      42    7935    7941      42    7947    7950      41
    7944    7947      42    7944    7950      42    7956    7959      41    7953
    7956      42    7953    7959      42    7965    7968      41    7962    7965
      42    7962    7968      42    7974    7977      41    7971    7974      42
    7971    7977      42    7983    7986      41    7980    7983      42    7980
    7986      42    7992    7995      41    7989    7992      42    7989    7995
      42    8001    8004      41    7998    8001      42    7998    8004      42
    8010    8013      41    8007    8010      42    8007    8013      42    8019
    8022      41    8016    8019      42    8016    8022      42    8028    8031
      41    8025    8028      42    8025    8031      42    8037    8040      41
    8034    8037      42    8034    8040      42    8046    8049      41    8043
    8046      42    8043    8049      42    8055    8058      41    8052    8055
      42    8052    8058      42    8064    8067      41    8061    8064      42
    8061    8067      42    8073    8076      41    8070    8073      42    8070
    8076      42    8082    8085      41    8079    8082      42    8079    8085
      42    8091    8094      41    8088    8091      42    8088    8094      42
    8100    8103      41    8097    8100      42    8097    8103      42    8109
    8112      41    8106    8109      42    8106    8112      42    8118    8121
      41    8115    8118      42    8115    8121      42    8127    8130      41
    8124    8127      42    8124    8130      42    8136    8139      41    8133
    8136      42    8133    8139      42    8145    8148      41    8142    8145
      42    8142    8148      42    8154    8157      41    8151    8154      42
    8151    8157      42    8163    8166      41    8160    8163      42    8160
    8166      42    8172    8175      41    8169    8172      42    8169    8175
      42    8181    8184      41    8178    8181      42    8178    8184      42
    8190    8193      41    8187    8190      42    8187    8193      42    8199
    8202      41    8196    8199      42    8196    8202      42    8208    8211
      41    8205    8208      42    8205    8211      42    8217    8220      41
    8214    8217      42    8214    8220      42    8226    8229      41    8223
    8226      42    8223    8229      42    8235    8238      41    8232    8235
      42    8232    8238      42    8244    8247      41    8241    8244      42
    8241    8247      42    8253    8256      41    8250    8253      42    8250
    8256      42    8262    8265      41    8259    8262      42    8259    8265
      42    8271    8274      41    8268    8271      42    8268    8274      42
    8280    8283      41    8277    8280      42    8277    8283      42    8289
    8292      41    8286    8289      42    8286    8292      42    8298    8301
      41    8295    8298      42    8295    8301      42    8307    8310      41
    8304    8307      42    8304    8310      42    8316    8319      41    8313
    8316      42    8313    8319      42    8325    8328      41    8322    8325
      42    8322    8328      42    8334    8337      41    8331    8334      42
    8331    8337      42    8343    8346      41    8340    8343      42    8340
    8346      42    8352    8355      41    8349    8352      42    8349    8355
      42    8361    8364      41    8358    8361      42    8358    8364      42
    8370    8373      41    8367    8370      42    8367    8373      42    8379
    8382      41    8376    8379      42    8376    8382      42    8388    8391
      41    8385    8388      42    8385    8391      42    8397    8400      41
    8394    8397      42    8394    8400      42    8406    8409      41    8403
    8406      42    8403    8409      42    8415    8418      41    8412    8415
      42    8412    8418      42    8424    8427      41    8421    8424      42
    8421    8427      42    8433    8436      41    8430    8433      42    8430
    8436      42    8442    8445      41    8439    8442      42    8439    8445
      42    8451    8454      41    8448    8451      42    8448    8454      42
    8460    8463      41    8457    8460      42    8457    8463      42    8469
    8472      41    8466    8469      42    8466    8472      42    8478    8481
      41    8475    8478      42    8475    8481      42    8487    8490      41
    8484    8487      42    8484    8490      42    8496    8499      41    8493
    8496      42    8493    8499      42    8505    8508      41    8502    8505
      42    8502    8508      42    8514    8517      41    8511    8514      42
    8511    8517      42    8523    8526      41    8520    8523      42    8520
    8526      42    8532    8535      41    8529    8532      42    8529    8535
      42    8541    8544      41    8538    8541      42    8538    8544      42
    8550    8553      41    8547    8550      42    8547    8553      42    8559
    8562      41    8556    8559      42    8556    8562      42    8568    8571
      41    8565    8568      42    8565    8571      42    8577    8580      41
    8574    8577      42    8574    8580      42    8586    8589      41    8583
    8586      42    8583    8589      42    8595    8598      41    8592    8595
      42    8592    8598      42    8604    8607      41    8601    8604      42
    8601    8607      42    8613    8616      41    8610    8613      42    8610
    8616      42    8622    8625      41    8619    8622      42    8619    8625
      42    8631    8634      41    8628    8631      42    8628    8634      42
    8640    8643      41    8637    8640      42    8637    8643      42    8649
    8652      41    8646    8649      42    8646    8652      42    8658    8661
      41    8655    8658      42    8655    8661      42    8667    8670      41
    8664    8667      42    8664    8670      42    8676    8679      41    8673
    8676      42    8673    8679      42    8685    8688      41    8682    8685
      42    8682    8688      42    8694    8697      41    8691    8694      42
    8691    8697      42    8703    8706      41    8700    8703      42    8700
    8706      42    8712    8715      41    8709    8712      42    8709    8715
      42    8721    8724      41    8718    8721      42    8718    8724      42
    8730    8733      41    8727    8730      42    8727    8733      42    8739
    8742      41    8736    8739      42    8736    8742      42    8748    8751
      41    8745    8748      42    8745    8751      42    8757    8760      41
    8754    8757      42    8754    8760      42    8766    8769      41    8763
    8766      42    8763    8769      42    8775    8778      41    8772    8775
      42    8772    8778      42    8784    8787      41    8781    8784      42
    8781    8787      42    8793    8796      41    8790    8793      42    8790
    8796      42    8802    8805      41    8799    8802      42    8799    8805
      42    8811    8814      41    8808    8811      42    8808    8814      42
    8820    8823      41    8817    8820      42    8817    8823      42    8829
    8832      41    8826    8829      42    8826    8832      42    8838    8841
      41    8835    8838      42    8835    8841      42    8847    8850      41
    8844    8847      42    8844    8850      42    8856    8859      41    8853
    8856      42    8853    8859      42    8865    8868      41    8862    8865
      42    8862    8868      42    8874    8877      41    8871    8874      42
    8871    8877      42    8883    8886      41    8880    8883      42    8880
    8886      42    8892    8895      41    8889    8892      42    8889    8895
      42    8901    8904      41    8898    8901      42    8898    8904      42
    8910    8913      41    8907    8910      42    8907    8913      42    8919
    8922      41    8916    8919      42    8916    8922      42    8928    8931
      41    8925    8928      42    8925    8931      42    8937    8940      41
    8934    8937      42    8934    8940      42    8946    8949      41    8943
    8946      42    8943    8949      42    8955    8958      41    8952    8955
      42    8952    8958      42    8964    8967      41    8961    8964      42
    8961    8967      42    8973    8976      41    8970    8973      42    8970
    8976      42    8982    8985      41    8979    8982      42    8979    8985
      42    8991    8994      41    8988    8991      42    8988    8994      42
    9000    9003      41    8997    9000      42    8997    9003      42    9009
    9012      41    9006    9009      42    9006    9012      42    9018    9021
      41    9015    9018      42    9015    9021      42    9027    9030      41
    9024    9027      42    9024    9030      42    9036    9039      41    9033
    9036      42    9033    9039      42    9045    9048      41    9042    9045
      42    9042    9048      42    9054    9057      41    9051    9054      42
    9051    9057      42    9063    9066      41    9060    9063      42    9060
    9066      42    9072    9075      41    9069    9072      42    9069    9075
      42    9081    9084      41    9078    9081      42    9078    9084      42
    9090    9093      41    9087    9090      42    9087    9093      42    9099
    9102      41    9096    9099      42    9096    9102      42    9108    9111
      41    9105    9108      42    9105    9111      42    9117    9120      41
    9114    9117      42    9114    9120      42    9126    9129      41    9123
    9126      42    9123    9129      42    9135    9138      41    9132    9135
      42    9132    9138      42    9144    9147      41    9141    9144      42
    9141    9147      42    9153    9156      41    9150    9153      42    9150
    9156      42    9162    9165      41    9159    9162      42    9159    9165
      42    9171    9174      41    9168    9171      42    9168    9174      42
    9180    9183      41    9177    9180      42    9177    9183      42    9189
    9192      41    9186    9189      42    9186    9192      42    9198    9201
      41    9195    9198      42    9195    9201      42    9207    9210      41
    9204    9207      42    9204    9210      42    9216    9219      41    9213
    9216      42    9213    9219      42    9225    9228      41    9222    9225
      42    9222    9228      42    9234    9237      41    9231    9234      42
    9231    9237      42    9243    9246      41    9240    9243      42    9240
    9246      42    9252    9255      41    9249    9252      42    9249    9255
      42    9261    9264      41    9258    9261      42    9258    9264      42
    9270    9273      41    9267    9270      42    9267    9273      42    9279
    9282      41    9276    9279      42    9276    9282      42    9288    9291
      41    9285    9288      42    9285    9291      42    9297    9300      41
    9294    9297      42    9294    9300      42    9306    9309      41    9303
    9306      42    9303    9309      42    9315    9318      41    9312    9315
      42    9312    9318      42    9324    9327      41    9321    9324      42
    9321    9327      42    9333    9336      41    9330    9333      42    9330
    9336      42    9342    9345      41    9339    9342      42    9339    9345
      42    9351    9354      41    9348    9351      42    9348    9354      42
    9360    9363      41    9357    9360      42    9357    9363      42    9369
    9372      41    9366    9369      42    9366    9372      42    9378    9381
      41    9375    9378      42    9375    9381      42    9387    9390      41
    9384    9387      42    9384    9390      42    9396    9399      41    9393
    9396      42    9393    9399      42    9405    9408      41    9402    9405
      42    9402    9408      42    9414    9417      41    9411    9414      42
    9411    9417      42    9423    9426      41    9420    9423      42    9420
    9426      42    9432    9435      41    9429    9432      42    9429    9435
      42    9441    9444      41    9438    9441      42    9438    9444      42
    9450    9453      41    9447    9450      42    9447    9453      42    9459
    9462      41    9456    9459      42    9456    9462      42    9468    9471
      41    9465    9468      42    9465    9471      42    9477    9480      41
    9474    9477      42    9474    9480      42    9486    9489      41    9483
    9486      42    9483    9489      42    9495    9498      41    9492    9495
      42    9492    9498      42    9504    9507      41    9501    9504      42
    9501    9507      42    9513    9516      41    9510    9513      42    9510
    9516      42    9522    9525      41    9519    9522      42    9519    9525
      42    9531    9534      41    9528    9531      42    9528    9534      42
    9540    9543      41    9537    9540      42    9537    9543      42    9549
    9552      41    9546    9549      42    9546    9552      42    9558    9561
      41    9555    9558      42    9555    9561      42    9567    9570      41
    9564    9567      42    9564    9570      42    9576    9579      41    9573
    9576      42    9573    9579      42    9585    9588      41    9582    9585
      42    9582    9588      42    9594    9597      41    9591    9594      42
    9591    9597      42    9603    9606      41    9600    9603      42    9600
    9606      42    9612    9615      41    9609    9612      42    9609    9615
      42    9621    9624      41    9618    9621      42    9618    9624      42
    9630    9633      41    9627    9630      42    9627    9633      42    9639
    9642      41    9636    9639      42    9636    9642      42    9648    9651
      41    9645    9648      42    9645    9651      42    9657    9660      41
    9654    9657      42    9654    9660      42    9666    9669      41    9663
    9666      42    9663    9669      42    9675    9678      41    9672    9675
      42    9672    9678      42    9684    9687      41    9681    9684      42
    9681    9687      42    9693    9696      41    9690    9693      42    9690
    9696      42    9702    9705      41    9699    9702      42    9699    9705
      42    9711    9714      41    9708    9711      42    9708    9714      42
    9720    9723      41    9717    9720      42    9717    9723      42    9729
    9732      41    9726    9729      42    9726    9732      42    9738    9741
      41    9735    9738      42    9735    9741      42    9747    9750      41
    9744    9747      42    9744    9750      42    9756    9759      41    9753
    9756      42    9753    9759      42    9765    9768      41    9762    9765
      42    9762    9768      42    9774    9777      41    9771    9774      42
    9771    9777      42    9783    9786      41    9780    9783      42    9780
    9786      42    9792    9795      41    9789    9792      42    9789    9795
      42    9801    9804      41    9798    9801      42    9798    9804      42
    9810    9813      41    9807    9810      42    9807    9813      42    9819
    9822      41    9816    9819      42    9816    9822      42    9828    9831
      41    9825    9828      42    9825    9831      42    9837    9840      41
    9834    9837      42    9834    9840      42    9846    9849      41    9843
    9846      42    9843    9849      42    9855    9858      41    9852    9855
      42    9852    9858      42    9864    9867      41    9861    9864      42
    9861    9867      42    9873    9876      41    9870    9873      42    9870
    9876      42    9882    9885      41    9879    9882      42    9879    9885
      42    9891    9894      41    9888    9891      42    9888    9894      42
    9900    9903      41    9897    9900      42    9897    9903      42    9909
    9912      41    9906    9909      42    9906    9912      42    9918    9921
      41    9915    9918      42    9915    9921      42    9927    9930      41
    9924    9927      42    9924    9930      42    9936    9939      41    9933
    9936      42    9933    9939      42    9945    9948      41    9942    9945
      42    9942    9948      42    9954    9957      41    9951    9954      42
    9951    9957      42    9963    9966      41    9960    9963      42    9960
    9966      42    9972    9975      41    9969    9972      42    9969    9975
      42    9981    9984      41    9978    9981      42    9978    9984      42
    9990    9993      41    9987    9990      42    9987    9993      42    9999
   10002      41    9996    9999      42    9996   10002      42   10008   10011
      41   10005   10008      42   10005   10011      42   10017   10020      41
   10014   10017      42   10014   10020      42   10026   10029      41   10023
   10026      42   10023   10029      42   10035   10038      41   10032   10035
      42   10032   10038      42   10044   10047      41   10041   10044      42
   10041   10047      42   10053   10056      41   10050   10053      42   10050
   10056      42   10062   10065      41   10059   10062      42   10059   10065
      42   10071   10074      41   10068   10071      42   10068   10074      42
   10080   10083      41   10077   10080      42   10077   10083      42   10089
   10092      41   10086   10089      42   10086   10092      42   10098   10101
      41   10095   10098      42   10095   10101      42   10107   10110      41
   10104   10107      42   10104   10110      42   10116   10119      41   10113
   10116      42   10113   10119      42   10125   10128      41   10122   10125
      42   10122   10128      42   10134   10137      41   10131   10134      42
   10131   10137      42   10143   10146      41   10140   10143      42   10140
   10146      42   10152   10155      41   10149   10152      42   10149   10155
      42   10161   10164      41   10158   10161      42   10158   10164      42
   10170   10173      41   10167   10170      42   10167   10173      42   10179
   10182      41   10176   10179      42   10176   10182      42   10188   10191
      41   10185   10188      42   10185   10191      42   10197   10200      41
   10194   10197      42   10194   10200      42   10206   10209      41   10203
   10206      42   10203   10209      42   10215   10218      41   10212   10215
      42   10212   10218      42   10224   10227      41   10221   10224      42
   10221   10227      42   10233   10236      41   10230   10233      42   10230
   10236      42   10242   10245      41   10239   10242      42   10239   10245
      42   10251   10254      41   10248   10251      42   10248   10254      42
   10260   10263      41   10257   10260      42   10257   10263      42   10269
   10272      41   10266   10269      42   10266   10272      42   10278   10281
      41   10275   10278      42   10275   10281      42   10287   10290      41
   10284   10287      42   10284   10290      42   10296   10299      41   10293
   10296      42   10293   10299      42   10305   10308      41   10302   10305
      42   10302   10308      42   10314   10317      41   10311   10314      42
   10311   10317      42   10323   10326      41   10320   10323      42   10320
   10326      42   10332   10335      41   10329   10332      42   10329   10335
      42   10341   10344      41   10338   10341      42   10338   10344      42
   10350   10353      41   10347   10350      42   10347   10353      42   10359
   10362      41   10356   10359      42   10356   10362      42   10368   10371
      41   10365   10368      42   10365   10371      42   10377   10380      41
   10374   10377      42   10374   10380      42   10386   10389      41   10383
   10386      42   10383   10389      42   10395   10398      41   10392   10395
      42   10392   10398      42   10404   10407      41   10401   10404      42
   10401   10407      42   10413   10416      41   10410   10413      42   10410
   10416      42   10422   10425      41   10419   10422      42   10419   10425
      42   10431   10434      41   10428   10431      42   10428   10434      42
   10440   10443      41   10437   10440      42   10437   10443      42   10449
   10452      41   10446   10449      42   10446   10452      42   10458   10461
      41   10455   10458      42   10455   10461      42   10467   10470      41
   10464   10467      42   10464   10470      42   10476   10479      41   10473
   10476      42   10473   10479      42   10485   10488      41   10482   10485
      42   10482   10488      42   10494   10497      41   10491   10494      42
   10491   10497      42   10503   10506      41   10500   10503      42   10500
   10506      42   10512   10515      41   10509   10512      42   10509   10515
      42   10521   10524      41   10518   10521      42   10518   10524      42
   10530   10533      41   10527   10530      42   10527   10533      42   10539
   10542      41   10536   10539      42   10536   10542      42   10548   10551
      41   10545   10548      42   10545   10551      42   10557   10560      41
   10554   10557      42   10554   10560      42   10566   10569      41   10563
   10566      42   10563   10569      42   10575   10578      41   10572   10575
      42   10572   10578      42   10584   10587      41   10581   10584      42
   10581   10587      42   10593   10596      41   10590   10593      42   10590
   10596      42   10602   10605      41   10599   10602      42   10599   10605
      42   10611   10614      41   10608   10611      42   10608   10614      42
   10620   10623      41   10617   10620      42   10617   10623      42   10629
   10632      41   10626   10629      42   10626   10632      42   10638   10641
      41   10635   10638      42   10635   10641      42   10647   10650      41
   10644   10647      42   10644   10650      42   10656   10659      41   10653
   10656      42   10653   10659      42   10665   10668      41   10662   10665
      42   10662   10668      42   10674   10677      41   10671   10674      42
   10671   10677      42   10683   10686      41   10680   10683      42   10680
   10686      42   10692   10695      41   10689   10692      42   10689   10695
      42   10701   10704      41   10698   10701      42   10698   10704      42
   10710   10713      41   10707   10710      42   10707   10713      42   10719
   10722      41   10716   10719      42   10716   10722      42   10728   10731
      41   10725   10728      42   10725   10731      42   10737   10740      41
   10734   10737      42   10734   10740      42   10746   10749      41   10743
   10746      42   10743   10749      42   10755   10758      41   10752   10755
      42   10752   10758      42   10764   10767      41   10761   10764      42
   10761   10767      42   10773   10776      41   10770   10773      42   10770
   10776      42   10782   10785      41   10779   10782      42   10779   10785
      42   10791   10794      41   10788   10791      42   10788   10794      42
   10800   10803      41   10797   10800      42   10797   10803      42   10809
   10812      41   10806   10809      42   10806   10812      42   10818   10821
      41   10815   10818      42   10815   10821      42   10827   10830      41
   10824   10827      42   10824   10830      42   10836   10839      41   10833
   10836      42   10833   10839      42   10845   10848      41   10842   10845
      42   10842   10848      42   10854   10857      41   10851   10854      42
   10851   10857      42   10863   10866      41   10860   10863      42   10860
   10866      42   10872   10875      41   10869   10872      42   10869   10875
      42   10881   10884      41   10878   10881      42   10878   10884      42
   10890   10893      41   10887   10890      42   10887   10893      42   10899
   10902      41   10896   10899      42   10896   10902      42   10908   10911
      41   10905   10908      42   10905   10911      42   10917   10920      41
   10914   10917      42   10914   10920      42   10926   10929      41   10923
   10926      42   10923   10929      42   10935   10938      41   10932   10935
      42   10932   10938      42   10944   10947      41   10941   10944      42
   10941   10947      42   10953   10956      41   10950   10953      42   10950
   10956      42   10962   10965      41   10959   10962      42   10959   10965
      42   10971   10974      41   10968   10971      42   10968   10974      42
   10980   10983      41   10977   10980      42   10977   10983      42   10989
   10992      41   10986   10989      42   10986   10992      42   10998   11001
      41   10995   10998      42   10995   11001      42   11007   11010      41
   11004   11007      42   11004   11010      42   11016   11019      41   11013
   11016      42   11013   11019      42   11025   11028      41   11022   11025
      42   11022   11028      42   11034   11037      41   11031   11034      42
   11031   11037      42   11043   11046      41   11040   11043      42   11040
   11046      42   11052   11055      41   11049   11052      42   11049   11055
      42   11061   11064      41   11058   11061      42   11058   11064      42
   11070   11073      41   11067   11070      42   11067   11073      42   11079
   11082      41   11076   11079      42   11076   11082      42   11088   11091
      41   11085   11088      42   11085   11091      42   11097   11100      41
   11094   11097      42   11094   11100      42   11106   11109      41   11103
   11106      42   11103   11109      42   11115   11118      41   11112   11115
      42   11112   11118      42   11124   11127      41   11121   11124      42
   11121   11127      42   11133   11136      41   11130   11133      42   11130
   11136      42   11142   11145      41   11139   11142      42   11139   11145
      42   11151   11154      41   11148   11151      42   11148   11154      42
   11160   11163      41   11157   11160      42   11157   11163      42   11169
   11172      41   11166   11169      42   11166   11172      42   11178   11181
      41   11175   11178      42   11175   11181      42   11187   11190      41
   11184   11187      42   11184   11190      42   11196   11199      41   11193
   11196      42   11193   11199      42   11205   11208      41   11202   11205
      42   11202   11208      42   11214   11217      41   11211   11214      42
   11211   11217      42   11223   11226      41   11220   11223      42   11220
   11226      42   11232   11235      41   11229   11232      42   11229   11235
      42   11241   11244      41   11238   11241      42   11238   11244      42
   11250   11253      41   11247   11250      42   11247   11253      42   11259
   11262      41   11256   11259      42   11256   11262      42   11268   11271
      41   11265   11268      42   11265   11271      42   11277   11280      41
   11274   11277      42   11274   11280      42   11286   11289      41   11283
   11286      42   11283   11289      42   11295   11298      41   11292   11295
      42   11292   11298      42   11304   11307      41   11301   11304      42
   11301   11307      42   11313   11316      41   11310   11313      42   11310
   11316      42   11322   11325      41   11319   11322      42   11319   11325
      42   11331   11334      41   11328   11331      42   11328   11334      42
   11340   11343      41   11337   11340      42   11337   11343      42   11349
   11352      41   11346   11349      42   11346   11352      42   11358   11361
      41   11355   11358      42   11355   11361      42   11367   11370      41
   11364   11367      42   11364   11370      42   11376   11379      41   11373
   11376      42   11373   11379      42   11385   11388      41   11382   11385
      42   11382   11388      42   11394   11397      41   11391   11394      42
   11391   11397      42   11403   11406      41   11400   11403      42   11400
   11406      42   11412   11415      41   11409   11412      42   11409   11415
      42   11421   11424      41   11418   11421      42   11418   11424      42
   11430   11433      41   11427   11430      42   11427   11433      42   11439
   11442      41   11436   11439      42   11436   11442      42   11448   11451
      41   11445   11448      42   11445   11451      42   11457   11460      41
   11454   11457      42   11454   11460      42   11466   11469      41   11463
   11466      42   11463   11469      42   11475   11478      41   11472   11475
      42   11472   11478      42   11484   11487      41   11481   11484      42
   11481   11487      42   11493   11496      41   11490   11493      42   11490
   11496      42   11502   11505      41   11499   11502      42   11499   11505
      42   11511   11514      41   11508   11511      42   11508   11514      42
   11520   11523      41   11517   11520      42   11517   11523      42   11529
   11532      41   11526   11529      42   11526   11532      42   11538   11541
      41   11535   11538      42   11535   11541      42   11547   11550      41
   11544   11547      42   11544   11550      42   11556   11559      41   11553
   11556      42   11553   11559      42   11565   11568      41   11562   11565
      42   11562   11568      42   11574   11577      41   11571   11574      42
   11571   11577      42   11583   11586      41   11580   11583      42   11580
   11586      42   11592   11595      41   11589   11592      42   11589   11595
      42   11601   11604      41   11598   11601      42   11598   11604      42
   11610   11613      41   11607   11610      42   11607   11613      42   11619
   11622      41   11616   11619      42   11616   11622      42   11628   11631
      41   11625   11628      42   11625   11631      42   11637   11640      41
   11634   11637      42   11634   11640      42   11646   11649      41   11643
   11646      42   11643   11649      42   11655   11658      41   11652   11655
      42   11652   11658      42   11664   11667      41   11661   11664      42
   11661   11667      42   11673   11676      41   11670   11673      42   11670
   11676      42   11682   11685      41   11679   11682      42   11679   11685
      42   11691   11694      41   11688   11691      42   11688   11694      42
   11700   11703      41   11697   11700      42   11697   11703      42   11709
   11712      41   11706   11709      42   11706   11712      42   11718   11721
      41   11715   11718      42   11715   11721      42   11727   11730      41
   11724   11727      42   11724   11730      42   11736   11739      41   11733
   11736      42   11733   11739      42   11745   11748      41   11742   11745
      42   11742   11748      42   11754   11757      41   11751   11754      42
   11751   11757      42   11763   11766      41   11760   11763      42   11760
   11766      42   11772   11775      41   11769   11772      42   11769   11775
      42   11781   11784      41   11778   11781      42   11778   11784      42
   11790   11793      41   11787   11790      42   11787   11793      42   11799
   11802      41   11796   11799      42   11796   11802      42   11808   11811
      41   11805   11808      42   11805   11811      42   11817   11820      41
   11814   11817      42   11814   11820      42   11826   11829      41   11823
   11826      42   11823   11829      42   11835   11838      41   11832   11835
      42   11832   11838      42   11844   11847      41   11841   11844      42
   11841   11847      42   11853   11856      41   11850   11853      42   11850
   11856      42   11862   11865      41   11859   11862      42   11859   11865
      42   11871   11874      41   11868   11871      42   11868   11874      42
   11880   11883      41   11877   11880      42   11877   11883      42   11889
   11892      41   11886   11889      42   11886   11892      42   11898   11901
      41   11895   11898      42   11895   11901      42   11907   11910      41
   11904   11907      42   11904   11910      42   11916   11919      41   11913
   11916      42   11913   11919      42   11925   11928      41   11922   11925
      42   11922   11928      42   11934   11937      41   11931   11934      42
   11931   11937      42   11943   11946      41   11940   11943      42   11940
   11946      42   11952   11955      41   11949   11952      42   11949   11955
      42   11961   11964      41   11958   11961      42   11958   11964      42
   11970   11973      41   11967   11970      42   11967   11973      42   11979
   11982      41   11976   11979      42   11976   11982      42   11988   11991
      41   11985   11988      42   11985   11991      42   11997   12000      41
   11994   11997      42   11994   12000      42   12006   12009      41   12003
   12006      42   12003   12009      42   12015   12018      41   12012   12015
      42   12012   12018      42   12024   12027      41   12021   12024      42
   12021   12027      42   12033   12036      41   12030   12033      42   12030
   12036      42   12042   12045      41   12039   12042      42   12039   12045
      42   12051   12054      41   12048   12051      42   12048   12054      42
   12060   12063      41   12057   12060      42   12057   12063      42   12069
   12072      41   12066   12069      42   12066   12072      42   12078   12081
      41   12075   12078      42   12075   12081      42   12087   12090      41
   12084   12087      42   12084   12090      42   12096   12099      41   12093
   12096      42   12093   12099      42   12105   12108      41   12102   12105
      42   12102   12108      42   12114   12117      41   12111   12114      42
   12111   12117      42   12123   12126      41   12120   12123      42   12120
   12126      42   12132   12135      41   12129   12132      42   12129   12135
      42   12141   12144      41   12138   12141      42   12138   12144      42
   12150   12153      41   12147   12150      42   12147   12153      42   12159
   12162      41   12156   12159      42   12156   12162      42   12168   12171
      41   12165   12168      42   12165   12171      42   12177   12180      41
   12174   12177      42   12174   12180      42   12186   12189      41   12183
   12186      42   12183   12189      42   12195   12198      41   12192   12195
      42   12192   12198      42   12204   12207      41   12201   12204      42
   12201   12207      42   12213   12216      41   12210   12213      42   12210
   12216      42   12222   12225      41   12219   12222      42   12219   12225
      42   12231   12234      41   12228   12231      42   12228   12234      42
   12240   12243      41   12237   12240      42   12237   12243      42   12249
   12252      41   12246   12249      42   12246   12252      42   12258   12261
      41   12255   12258      42   12255   12261      42   12267   12270      41
   12264   12267      42   12264   12270      42   12276   12279      41   12273
   12276      42   12273   12279      42   12285   12288      41   12282   12285
      42   12282   12288      42   12294   12297      41   12291   12294      42
   12291   12297      42   12303   12306      41   12300   12303      42   12300
   12306      42   12312   12315      41   12309   12312      42   12309   12315
      42   12321   12324      41   12318   12321      42   12318   12324      42
   12330   12333      41   12327   12330      42   12327   12333      42   12339
   12342      41   12336   12339      42   12336   12342      42   12348   12351
      41   12345   12348      42   12345   12351      42   12357   12360      41
   12354   12357      42   12354   12360      42   12366   12369      41   12363
   12366      42   12363   12369      42   12375   12378      41   12372   12375
      42   12372   12378      42   12384   12387      41   12381   12384      42
   12381   12387      42   12393   12396      41   12390   12393      42   12390
   12396      42   12402   12405      41   12399   12402      42   12399   12405
      42   12411   12414      41   12408   12411      42   12408   12414      42
   12420   12423      41   12417   12420      42   12417   12423      42   12429
   12432      41   12426   12429      42   12426   12432      42   12438   12441
      41   12435   12438      42   12435   12441      42   12447   12450      41
   12444   12447      42   12444   12450      42   12456   12459      41   12453
   12456      42   12453   12459      42   12465   12468      41   12462   12465
      42   12462   12468      42   12474   12477      41   12471   12474      42
   12471   12477      42   12483   12486      41   12480   12483      42   12480
   12486      42   12492   12495      41   12489   12492      42   12489   12495
      42   12501   12504      41   12498   12501      42   12498   12504      42
   12510   12513      41   12507   12510      42   12507   12513      42   12519
   12522      41   12516   12519      42   12516   12522      42   12528   12531
      41   12525   12528      42   12525   12531      42   12537   12540      41
   12534   12537      42   12534   12540      42   12546   12549      41   12543
   12546      42   12543   12549      42   12555   12558      41   12552   12555
      42   12552   12558      42   12564   12567      41   12561   12564      42
   12561   12567      42   12573   12576      41   12570   12573      42   12570
   12576      42   12582   12585      41   12579   12582      42   12579   12585
      42   12591   12594      41   12588   12591      42   12588   12594      42
   12600   12603      41   12597   12600      42   12597   12603      42   12609
   12612      41   12606   12609      42   12606   12612      42   12618   12621
      41   12615   12618      42   12615   12621      42   12627   12630      41
   12624   12627      42   12624   12630      42   12636   12639      41   12633
   12636      42   12633   12639      42   12645   12648      41   12642   12645
      42   12642   12648      42   12654   12657      41   12651   12654      42
   12651   12657      42   12663   12666      41   12660   12663      42   12660
   12666      42   12672   12675      41   12669   12672      42   12669   12675
      42   12681   12684      41   12678   12681      42   12678   12684      42
   12690   12693      41   12687   12690      42   12687   12693      42   12699
   12702      41   12696   12699      42   12696   12702      42   12708   12711
      41   12705   12708      42   12705   12711      42   12717   12720      41
   12714   12717      42   12714   12720      42   12726   12729      41   12723
   12726      42   12723   12729      42   12735   12738      41   12732   12735
      42   12732   12738      42   12744   12747      41   12741   12744      42
   12741   12747      42   12753   12756      41   12750   12753      42   12750
   12756      42   12762   12765      41   12759   12762      42   12759   12765
      42   12771   12774      41   12768   12771      42   12768   12774      42
   12780   12783      41   12777   12780      42   12777   12783      42   12789
   12792      41   12786   12789      42   12786   12792      42   12798   12801
      41   12795   12798      42   12795   12801      42   12807   12810      41
   12804   12807      42   12804   12810      42   12816   12819      41   12813
   12816      42   12813   12819      42   12825   12828      41   12822   12825
      42   12822   12828      42   12834   12837      41   12831   12834      42
   12831   12837      42   12843   12846      41   12840   12843      42   12840
   12846      42   12852   12855      41   12849   12852      42   12849   12855
      42   12861   12864      41   12858   12861      42   12858   12864      42
   12870   12873      41   12867   12870      42   12867   12873      42   12879
   12882      41   12876   12879      42   12876   12882      42   12888   12891
      41   12885   12888      42   12885   12891      42   12897   12900      41
   12894   12897      42   12894   12900      42   12906   12909      41   12903
   12906      42   12903   12909      42   12915   12918      41   12912   12915
      42   12912   12918      42   12924   12927      41   12921   12924      42
   12921   12927      42   12933   12936      41   12930   12933      42   12930
   12936      42   12942   12945      41   12939   12942      42   12939   12945
      42   12951   12954      41   12948   12951      42   12948   12954      42
   12960   12963      41   12957   12960      42   12957   12963      42   12969
   12972      41   12966   12969      42   12966   12972      42   12978   12981
      41   12975   12978      42   12975   12981      42   12987   12990      41
   12984   12987      42   12984   12990      42   12996   12999      41   12993
   12996      42   12993   12999      42   13005   13008      41   13002   13005
      42   13002   13008      42   13014   13017      41   13011   13014      42
   13011   13017      42   13023   13026      41   13020   13023      42   13020
   13026      42   13032   13035      41   13029   13032      42   13029   13035
      42   13041   13044      41   13038   13041      42   13038   13044      42
   13050   13053      41   13047   13050      42   13047   13053      42   13059
   13062      41   13056   13059      42   13056   13062      42   13068   13071
      41   13065   13068      42   13065   13071      42   13077   13080      41
   13074   13077      42   13074   13080      42   13086   13089      41   13083
   13086      42   13083   13089      42   13095   13098      41   13092   13095
      42   13092   13098      42   13104   13107      41   13101   13104      42
   13101   13107      42   13113   13116      41   13110   13113      42   13110
   13116      42   13122   13125      41   13119   13122      42   13119   13125
      42   13131   13134      41   13128   13131      42   13128   13134      42
   13140   13143      41   13137   13140      42   13137   13143      42   13149
   13152      41   13146   13149      42   13146   13152      42   13158   13161
      41   13155   13158      42   13155   13161      42   13167   13170      41
   13164   13167      42   13164   13170      42   13176   13179      41   13173
   13176      42   13173   13179      42   13185   13188      41   13182   13185
      42   13182   13188      42   13194   13197      41   13191   13194      42
   13191   13197      42   13203   13206      41   13200   13203      42   13200
   13206      42   13212   13215      41   13209   13212      42   13209   13215
      42   13221   13224      41   13218   13221      42   13218   13224      42
   13230   13233      41   13227   13230      42   13227   13233      42   13239
   13242      41   13236   13239      42   13236   13242      42   13248   13251
      41   13245   13248      42   13245   13251      42   13257   13260      41
   13254   13257      42   13254   13260      42   13266   13269      41   13263
   13266      42   13263   13269      42   13275   13278      41   13272   13275
      42   13272   13278      42   13284   13287      41   13281   13284      42
   13281   13287      42   13293   13296      41   13290   13293      42   13290
   13296      42   13302   13305      41   13299   13302      42   13299   13305
      42   13311   13314      41   13308   13311      42   13308   13314      42
   13320   13323      41   13317   13320      42   13317   13323      42   13329
   13332      41   13326   13329      42   13326   13332      42   13338   13341
      41   13335   13338      42   13335   13341      42   13347   13350      41
   13344   13347      42   13344   13350      42   13356   13359      41   13353
   13356      42   13353   13359      42   13365   13368      41   13362   13365
      42   13362   13368      42   13374   13377      41   13371   13374      42
   13371   13377      42   13383   13386      41   13380   13383      42   13380
   13386      42   13392   13395      41   13389   13392      42   13389   13395
      42   13401   13404      41   13398   13401      42   13398   13404      42
   13410   13413      41   13407   13410      42   13407   13413      42   13419
   13422      41   13416   13419      42   13416   13422      42   13428   13431
      41   13425   13428      42   13425   13431      42   13437   13440      41
   13434   13437      42   13434   13440      42   13446   13449      41   13443
   13446      42   13443   13449      42   13455   13458      41   13452   13455
      42   13452   13458      42   13464   13467      41   13461   13464      42
   13461   13467      42   13473   13476      41   13470   13473      42   13470
   13476      42   13482   13485      41   13479   13482      42   13479   13485
      42   13491   13494      41   13488   13491      42   13488   13494      42
   13500   13503      41   13497   13500      42   13497   13503      42   13509
   13512      41   13506   13509      42   13506   13512      42   13518   13521
      41   13515   13518      42   13515   13521      42   13527   13530      41
   13524   13527      42   13524   13530      42   13536   13539      41   13533
   13536      42   13533   13539      42   13545   13548      41   13542   13545
      42   13542   13548      42   13554   13557      41   13551   13554      42
   13551   13557      42   13563   13566      41   13560   13563      42   13560
   13566      42   13572   13575      41   13569   13572      42   13569   13575
      42   13581   13584      41   13578   13581      42   13578   13584      42
   13590   13593      41   13587   13590      42   13587   13593      42   13599
   13602      41   13596   13599      42   13596   13602      42   13608   13611
      41   13605   13608      42   13605   13611      42   13617   13620      41
   13614   13617      42   13614   13620      42   13626   13629      41   13623
   13626      42   13623   13629      42   13635   13638      41   13632   13635
      42   13632   13638      42   13644   13647      41   13641   13644      42
   13641   13647      42   13653   13656      41   13650   13653      42   13650
   13656      42   13662   13665      41   13659   13662      42   13659   13665
      42   13671   13674      41   13668   13671      42   13668   13674      42
   13680   13683      41   13677   13680      42   13677   13683      42   13689
   13692      41   13686   13689      42   13686   13692      42   13698   13701
      41   13695   13698      42   13695   13701      42   13707   13710      41
   13704   13707      42   13704   13710      42   13716   13719      41   13713
   13716      42   13713   13719      42   13725   13728      41   13722   13725
      42   13722   13728      42   13734   13737      41   13731   13734      42
   13731   13737      42   13743   13746      41   13740   13743      42   13740
   13746      42   13752   13755      41   13749   13752      42   13749   13755
      42   13761   13764      41   13758   13761      42   13758   13764      42
   13770   13773      41   13767   13770      42   13767   13773      42   13779
   13782      41   13776   13779      42   13776   13782      42   13788   13791
      41   13785   13788      42   13785   13791      42   13797   13800      41
   13794   13797      42   13794   13800      42   13806   13809      41   13803
   13806      42   13803   13809      42   13815   13818      41   13812   13815
      42   13812   13818      42   13824   13827      41   13821   13824      42
   13821   13827      42   13833   13836      41   13830   13833      42   13830
   13836      42   13842   13845      41   13839   13842      42   13839   13845
      42   13851   13854      41   13848   13851      42   13848   13854      42
   13860   13863      41   13857   13860      42   13857   13863      42   13869
   13872      41   13866   13869      42   13866   13872      42   13878   13881
      41   13875   13878      42   13875   13881      42   13887   13890      41
   13884   13887      42   13884   13890      42   13896   13899      41   13893
   13896      42   13893   13899      42   13905   13908      41   13902   13905
      42   13902   13908      42   13914   13917      41   13911   13914      42
   13911   13917      42   13923   13926      41   13920   13923      42   13920
   13926      42   13932   13935      41   13929   13932      42   13929   13935
      42   13941   13944      41   13938   13941      42   13938   13944      42
   13950   13953      41   13947   13950      42   13947   13953      42   13959
   13962      41   13956   13959      42   13956   13962      42   13968   13971
      41   13965   13968      42   13965   13971      42   13977   13980      41
   13974   13977      42   13974   13980      42   13986   13989      41   13983
   13986      42   13983   13989      42   13995   13998      41   13992   13995
      42   13992   13998      42   14004   14007      41   14001   14004      42
   14001   14007      42   14013   14016      41   14010   14013      42   14010
   14016      42   14022   14025      41   14019   14022      42   14019   14025
      42   14031   14034      41   14028   14031      42   14028   14034      42
   14040   14043      41   14037   14040      42   14037   14043      42   14049
   14052      41   14046   14049      42   14046   14052      42   14058   14061
      41   14055   14058      42   14055   14061      42   14067   14070      41
   14064   14067      42   14064   14070      42   14076   14079      41   14073
   14076      42   14073   14079      42   14085   14088      41   14082   14085
      42   14082   14088      42   14094   14097      41   14091   14094      42
   14091   14097      42   14103   14106      41   14100   14103      42   14100
   14106      42   14112   14115      41   14109   14112      42   14109   14115
      42   14121   14124      41   14118   14121      42   14118   14124      42
   14130   14133      41   14127   14130      42   14127   14133      42   14139
   14142      41   14136   14139      42   14136   14142      42   14148   14151
      41   14145   14148      42   14145   14151      42   14157   14160      41
   14154   14157      42   14154   14160      42   14166   14169      41   14163
   14166      42   14163   14169      42   14175   14178      41   14172   14175
      42   14172   14178      42   14184   14187      41   14181   14184      42
   14181   14187      42   14193   14196      41   14190   14193      42   14190
   14196      42   14202   14205      41   14199   14202      42   14199   14205
      42   14211   14214      41   14208   14211      42   14208   14214      42
   14220   14223      41   14217   14220      42   14217   14223      42   14229
   14232      41   14226   14229      42   14226   14232      42   14238   14241
      41   14235   14238      42   14235   14241      42   14247   14250      41
   14244   14247      42   14244   14250      42   14256   14259      41   14253
   14256      42   14253   14259      42   14265   14268      41   14262   14265
      42   14262   14268      42   14274   14277      41   14271   14274      42
   14271   14277      42   14283   14286      41   14280   14283      42   14280
   14286      42   14292   14295      41   14289   14292      42   14289   14295
      42   14301   14304      41   14298   14301      42   14298   14304      42
   14310   14313      41   14307   14310      42   14307   14313      42   14319
   14322      41   14316   14319      42   14316   14322      42   14328   14331
      41   14325   14328      42   14325   14331      42   14337   14340      41
   14334   14337      42   14334   14340      42   14346   14349      41   14343
   14346      42   14343   14349      42   14355   14358      41   14352   14355
      42   14352   14358      42   14364   14367      41   14361   14364      42
   14361   14367      42   14373   14376      41   14370   14373      42   14370
   14376      42   14382   14385      41   14379   14382      42   14379   14385
      42   14391   14394      41   14388   14391      42   14388   14394      42
   14400   14403      41   14397   14400      42   14397   14403      42   14409
   14412      41   14406   14409      42   14406   14412      42   14418   14421
      41   14415   14418      42   14415   14421      42   14427   14430      41
   14424   14427      42   14424   14430      42   14436   14439      41   14433
   14436      42   14433   14439      42   14445   14448      41   14442   14445
      42   14442   14448      42   14454   14457      41   14451   14454      42
   14451   14457      42   14463   14466      41   14460   14463      42   14460
   14466      42   14472   14475      41   14469   14472      42   14469   14475
      42   14481   14484      41   14478   14481      42   14478   14484      42
   14490   14493      41   14487   14490      42   14487   14493      42   14499
   14502      41   14496   14499      42   14496   14502      42   14508   14511
      41   14505   14508      42   14505   14511      42   14517   14520      41
   14514   14517      42   14514   14520      42   14526   14529      41   14523
   14526      42   14523   14529      42   14535   14538      41   14532   14535
      42   14532   14538      42   14544   14547      41   14541   14544      42
   14541   14547      42   14553   14556      41   14550   14553      42   14550
   14556      42   14562   14565      41   14559   14562      42   14559   14565
      42   14571   14574      41   14568   14571      42   14568   14574      42
   14580   14583      41   14577   14580      42   14577   14583      42   14589
   14592      41   14586   14589      42   14586   14592      42   14598   14601
      41   14595   14598      42   14595   14601      42   14607   14610      41
   14604   14607      42   14604   14610      42   14616   14619      41   14613
   14616      42   14613   14619      42   14625   14628      41   14622   14625
      42   14622   14628      42   14634   14637      41   14631   14634      42
   14631   14637      42   14643   14646      41   14640   14643      42   14640
   14646      42   14652   14655      41   14649   14652      42   14649   14655
      42   14661   14664      41   14658   14661      42   14658   14664      42
   14670   14673      41   14667   14670      42   14667   14673      42   14679
   14682      41   14676   14679      42   14676   14682      42   14688   14691
      41   14685   14688      42   14685   14691      42   14697   14700      41
   14694   14697      42   14694   14700      42   14706   14709      41   14703
   14706      42   14703   14709      42   14715   14718      41   14712   14715
      42   14712   14718      42   14724   14727      41   14721   14724      42
   14721   14727      42   14733   14736      41   14730   14733      42   14730
   14736      42   14742   14745      41   14739   14742      42   14739   14745
      42   14751   14754      41   14748   14751      42   14748   14754      42
   14760   14763      41   14757   14760      42   14757   14763      42   14769
   14772      41   14766   14769      42   14766   14772      42   14778   14781
      41   14775   14778      42   14775   14781      42   14787   14790      41
   14784   14787      42   14784   14790      42   14796   14799      41   14793
   14796      42   14793   14799      42   14805   14808      41   14802   14805
      42   14802   14808      42   14814   14817      41   14811   14814      42
   14811   14817      42   14823   14826      41   14820   14823      42   14820
   14826      42   14832   14835      41   14829   14832      42   14829   14835
      42   14841   14844      41   14838   14841      42   14838   14844      42
   14850   14853      41   14847   14850      42   14847   14853      42   14859
   14862      41   14856   14859      42   14856   14862      42   14868   14871
      41   14865   14868      42   14865   14871      42   14877   14880      41
   14874   14877      42   14874   14880      42   14886   14889      41   14883
   14886      42   14883   14889      42   14895   14898      41   14892   14895
      42   14892   14898      42   14904   14907      41   14901   14904      42
   14901   14907      42   14913   14916      41   14910   14913      42   14910
   14916      42   14922   14925      41   14919   14922      42   14919   14925
      42   14931   14934      41   14928   14931      42   14928   14934      42
   14940   14943      41   14937   14940      42   14937   14943      42   14949
   14952      41   14946   14949      42   14946   14952      42   14958   14961
      41   14955   14958      42   14955   14961      42   14967   14970      41
   14964   14967      42   14964   14970      42   14976   14979      41   14973
   14976      42   14973   14979      42   14985   14988      41   14982   14985
      42   14982   14988      42   14994   14997      41   14991   14994      42
   14991   14997      42   15003   15006      41   15000   15003      42   15000
   15006      42   15012   15015      41   15009   15012      42   15009   15015
      42   15021   15024      41   15018   15021      42   15018   15024      42
   15030   15033      41   15027   15030      42   15027   15033      42   15039
   15042      41   15036   15039      42   15036   15042      42   15048   15051
      41   15045   15048      42   15045   15051      42   15057   15060      41
   15054   15057      42   15054   15060      42   15066   15069      41   15063
   15066      42   15063   15069      42   15075   15078      41   15072   15075
      42   15072   15078      42   15084   15087      41   15081   15084      42
   15081   15087      42   15093   15096      41   15090   15093      42   15090
   15096      42   15102   15105      41   15099   15102      42   15099   15105
      42   15111   15114      41   15108   15111      42   15108   15114      42
   15120   15123      41   15117   15120      42   15117   15123      42   15129
   15132      41   15126   15129      42   15126   15132      42   15138   15141
      41   15135   15138      42   15135   15141      42   15147   15150      41
   15144   15147      42   15144   15150      42   15156   15159      41   15153
   15156      42   15153   15159      42   15165   15168      41   15162   15165
      42   15162   15168      42   15174   15177      41   15171   15174      42
   15171   15177      42   15183   15186      41   15180   15183      42   15180
   15186      42   15192   15195      41   15189   15192      42   15189   15195
      42   15201   15204      41   15198   15201      42   15198   15204      42
   15210   15213      41   15207   15210      42   15207   15213      42   15219
   15222      41   15216   15219      42   15216   15222      42   15228   15231
      41   15225   15228      42   15225   15231      42   15237   15240      41
   15234   15237      42   15234   15240      42   15246   15249      41   15243
   15246      42   15243   15249      42   15255   15258      41   15252   15255
      42   15252   15258      42   15264   15267      41   15261   15264      42
   15261   15267      42   15273   15276      41   15270   15273      42   15270
   15276      42   15282   15285      41   15279   15282      42   15279   15285
      42   15291   15294      41   15288   15291      42   15288   15294      42
   15300   15303      41   15297   15300      42   15297   15303      42   15309
   15312      41   15306   15309      42   15306   15312      42   15318   15321
      41   15315   15318      42   15315   15321      42   15327   15330      41
   15324   15327      42   15324   15330      42   15336   15339      41   15333
   15336      42   15333   15339      42   15345   15348      41   15342   15345
      42   15342   15348      42   15354   15357      41   15351   15354      42
   15351   15357      42   15363   15366      41   15360   15363      42   15360
   15366      42   15372   15375      41   15369   15372      42   15369   15375
      42   15381   15384      41   15378   15381      42   15378   15384      42
   15390   15393      41   15387   15390      42   15387   15393      42   15399
   15402      41   15396   15399      42   15396   15402      42   15408   15411
      41   15405   15408      42   15405   15411      42   15417   15420      41
   15414   15417      42   15414   15420      42   15426   15429      41   15423
   15426      42   15423   15429      42   15435   15438      41   15432   15435
      42   15432   15438      42   15444   15447      41   15441   15444      42
   15441   15447      42   15453   15456      41   15450   15453      42   15450
   15456      42   15462   15465      41   15459   15462      42   15459   15465
      42   15471   15474      41   15468   15471      42   15468   15474      42
   15480   15483      41   15477   15480      42   15477   15483      42   15489
   15492      41   15486   15489      42   15486   15492      42   15498   15501
      41   15495   15498      42   15495   15501      42   15507   15510      41
   15504   15507      42   15504   15510      42   15516   15519      41   15513
   15516      42   15513   15519      42   15525   15528      41   15522   15525
      42   15522   15528      42   15534   15537      41   15531   15534      42
   15531   15537      42   15543   15546      41   15540   15543      42   15540
   15546      42   15552   15555      41   15549   15552      42   15549   15555
      42   15561   15564      41   15558   15561      42   15558   15564      42
   15570   15573      41   15567   15570      42   15567   15573      42   15579
   15582      41   15576   15579      42   15576   15582      42   15588   15591
      41   15585   15588      42   15585   15591      42   15597   15600      41
   15594   15597      42   15594   15600      42   15606   15609      41   15603
   15606      42   15603   15609      42   15615   15618      41   15612   15615
      42   15612   15618      42   15624   15627      41   15621   15624      42
   15621   15627      42   15633   15636      41   15630   15633      42   15630
   15636      42   15642   15645      41   15639   15642      42   15639   15645
      42   15651   15654      41   15648   15651      42   15648   15654      42
   15660   15663      41   15657   15660      42   15657   15663      42   15669
   15672      41   15666   15669      42   15666   15672      42   15678   15681
      41   15675   15678      42   15675   15681      42   15687   15690      41
   15684   15687      42   15684   15690      42   15696   15699      41   15693
   15696      42   15693   15699      42   15705   15708      41   15702   15705
      42   15702   15708      42   15714   15717      41   15711   15714      42
   15711   15717      42   15723   15726      41   15720   15723      42   15720
   15726      42   15732   15735      41   15729   15732      42   15729   15735
      42   15741   15744      41   15738   15741      42   15738   15744      42
   15750   15753      41   15747   15750      42   15747   15753      42   15759
   15762      41   15756   15759      42   15756   15762      42   15768   15771
      41   15765   15768      42   15765   15771      42   15777   15780      41
   15774   15777      42   15774   15780      42   15786   15789      41   15783
   15786      42   15783   15789      42   15795   15798      41   15792   15795
      42   15792   15798      42   15804   15807      41   15801   15804      42
   15801   15807      42   15813   15816      41   15810   15813      42   15810
   15816      42   15822   15825      41   15819   15822      42   15819   15825
      42   15831   15834      41   15828   15831      42   15828   15834      42
   15840   15843      41   15837   15840      42   15837   15843      42   15849
   15852      41   15846   15849      42   15846   15852      42   15858   15861
      41   15855   15858      42   15855   15861      42   15867   15870      41
   15864   15867      42   15864   15870      42   15876   15879      41   15873
   15876      42   15873   15879      42   15885   15888      41   15882   15885
      42   15882   15888      42   15894   15897      41   15891   15894      42
   15891   15897      42   15903   15906      41   15900   15903      42   15900
   15906      42   15912   15915      41   15909   15912      42   15909   15915
      42   15921   15924      41   15918   15921      42   15918   15924      42
   15930   15933      41   15927   15930      42   15927   15933      42   15939
   15942      41   15936   15939      42   15936   15942      42   15948   15951
      41   15945   15948      42   15945   15951      42   15957   15960      41
   15954   15957      42   15954   15960      42   15966   15969      41   15963
   15966      42   15963   15969      42   15975   15978      41   15972   15975
      42   15972   15978      42   15984   15987      41   15981   15984      42
   15981   15987      42   15993   15996      41   15990   15993      42   15990
   15996      42   16002   16005      41   15999   16002      42   15999   16005
      42   16011   16014      41   16008   16011      42   16008   16014      42
   16020   16023      41   16017   16020      42   16017   16023      42   16029
   16032      41   16026   16029      42   16026   16032      42   16038   16041
      41   16035   16038      42   16035   16041      42   16047   16050      41
   16044   16047      42   16044   16050      42   16056   16059      41   16053
   16056      42   16053   16059      42   16065   16068      41   16062   16065
      42   16062   16068      42   16074   16077      41   16071   16074      42
   16071   16077      42   16083   16086      41   16080   16083      42   16080
   16086      42   16092   16095      41   16089   16092      42   16089   16095
      42   16101   16104      41   16098   16101      42   16098   16104      42
   16110   16113      41   16107   16110      42   16107   16113      42   16119
   16122      41   16116   16119      42   16116   16122      42   16128   16131
      41   16125   16128      42   16125   16131      42   16137   16140      41
   16134   16137      42   16134   16140      42   16146   16149      41   16143
   16146      42   16143   16149      42   16155   16158      41   16152   16155
      42   16152   16158      42   16164   16167      41   16161   16164      42
   16161   16167      42   16173   16176      41   16170   16173      42   16170
   16176      42   16182   16185      41   16179   16182      42   16179   16185
      42   16191   16194      41   16188   16191      42   16188   16194      42
   16200   16203      41   16197   16200      42   16197   16203      42   16209
   16212      41   16206   16209      42   16206   16212      42   16218   16221
      41   16215   16218      42   16215   16221      42   16227   16230      41
   16224   16227      42   16224   16230      42   16236   16239      41   16233
   16236      42   16233   16239      42   16245   16248      41   16242   16245
      42   16242   16248      42   16254   16257      41   16251   16254      42
   16251   16257      42   16263   16266      41   16260   16263      42   16260
   16266      42   16272   16275      41   16269   16272      42   16269   16275
      42   16281   16284      41   16278   16281      42   16278   16284      42
   16290   16293      41   16287   16290      42   16287   16293      42   16299
   16302      41   16296   16299      42   16296   16302      42   16308   16311
      41   16305   16308      42   16305   16311      42   16317   16320      41
   16314   16317      42   16314   16320      42   16326   16329      41   16323
   16326      42   16323   16329      42   16335   16338      41   16332   16335
      42   16332   16338      42   16344   16347      41   16341   16344      42
   16341   16347      42   16353   16356      41   16350   16353      42   16350
   16356      42   16362   16365      41   16359   16362      42   16359   16365
      42   16371   16374      41   16368   16371      42   16368   16374      42
   16380   16383      41   16377   16380      42   16377   16383      42   16389
   16392      41   16386   16389      42   16386   16392      42   16398   16401
      41   16395   16398      42   16395   16401      42   16407   16410      41
   16404   16407      42   16404   16410      42   16416   16419      41   16413
   16416      42   16413   16419      42   16425   16428      41   16422   16425
      42   16422   16428      42   16434   16437      41   16431   16434      42
   16431   16437      42   16443   16446      41   16440   16443      42   16440
   16446      42   16452   16455      41   16449   16452      42   16449   16455
      42   16461   16464      41   16458   16461      42   16458   16464      42
   16470   16473      41   16467   16470      42   16467   16473      42   16479
   16482      41   16476   16479      42   16476   16482      42   16488   16491
      41   16485   16488      42   16485   16491      42   16497   16500      41
   16494   16497      42   16494   16500      42   16506   16509      41   16503
   16506      42   16503   16509      42   16515   16518      41   16512   16515
      42   16512   16518      42   16524   16527      41   16521   16524      42
   16521   16527      42   16533   16536      41   16530   16533      42   16530
   16536      42   16542   16545      41   16539   16542      42   16539   16545
      42   16551   16554      41   16548   16551      42   16548   16554      42
   16560   16563      41   16557   16560      42   16557   16563      42   16569
   16572      41   16566   16569      42   16566   16572      42   16578   16581
      41   16575   16578      42   16575   16581      42   16587   16590      41
   16584   16587      42   16584   16590      42   16596   16599      41   16593
   16596      42   16593   16599      42   16605   16608      41   16602   16605
      42   16602   16608      42   16614   16617      41   16611   16614      42
   16611   16617      42   16623   16626      41   16620   16623      42   16620
   16626      42   16632   16635      41   16629   16632      42   16629   16635
      42   16641   16644      41   16638   16641      42   16638   16644      42
   16650   16653      41   16647   16650      42   16647   16653      42   16659
   16662      41   16656   16659      42   16656   16662      42   16668   16671
      41   16665   16668      42   16665   16671      42   16677   16680      41
   16674   16677      42   16674   16680      42   16686   16689      41   16683
   16686      42   16683   16689      42   16695   16698      41   16692   16695
      42   16692   16698      42   16704   16707      41   16701   16704      42
   16701   16707      42   16713   16716      41   16710   16713      42   16710
   16716      42   16722   16725      41   16719   16722      42   16719   16725
      42   16731   16734      41   16728   16731      42   16728   16734      42
   16740   16743      41   16737   16740      42   16737   16743      42   16749
   16752      41   16746   16749      42   16746   16752      42   16758   16761
      41   16755   16758      42   16755   16761      42   16767   16770      41
   16764   16767      42   16764   16770      42   16776   16779      41   16773
   16776      42   16773   16779      42   16785   16788      41   16782   16785
      42   16782   16788      42   16794   16797      41   16791   16794      42
   16791   16797      42   16803   16806      41   16800   16803      42   16800
   16806      42   16812   16815      41   16809   16812      42   16809   16815
      42   16821   16824      41   16818   16821      42   16818   16824      42
   16830   16833      41   16827   16830      42   16827   16833      42   16839
   16842      41   16836   16839      42   16836   16842      42   16848   16851
      41   16845   16848      42   16845   16851      42   16857   16860      41
   16854   16857      42   16854   16860      42   16866   16869      41   16863
   16866      42   16863   16869      42   16875   16878      41   16872   16875
      42   16872   16878      42   16884   16887      41   16881   16884      42
   16881   16887      42   16893   16896      41   16890   16893      42   16890
   16896      42   16902   16905      41   16899   16902      42   16899   16905
      42   16911   16914      41   16908   16911      42   16908   16914      42
   16920   16923      41   16917   16920      42   16917   16923      42   16929
   16932      41   16926   16929      42   16926   16932      42   16938   16941
      41   16935   16938      42   16935   16941      42   16947   16950      41
   16944   16947      42   16944   16950      42   16956   16959      41   16953
   16956      42   16953   16959      42   16965   16968      41   16962   16965
      42   16962   16968      42   16974   16977      41   16971   16974      42
   16971   16977      42   16983   16986      41   16980   16983      42   16980
   16986      42   16992   16995      41   16989   16992      42   16989   16995
      42   17001   17004      41   16998   17001      42   16998   17004      42
   17010   17013      41   17007   17010      42   17007   17013      42   17019
   17022      41   17016   17019      42   17016   17022      42   17028   17031
      41   17025   17028      42   17025   17031      42   17037   17040      41
   17034   17037      42   17034   17040      42   17046   17049      41   17043
   17046      42   17043   17049      42   17055   17058      41   17052   17055
      42   17052   17058      42   17064   17067      41   17061   17064      42
   17061   17067      42   17073   17076      41   17070   17073      42   17070
   17076      42   17082   17085      41   17079   17082      42   17079   17085
      42   17091   17094      41   17088   17091      42   17088   17094      42
   17100   17103      41   17097   17100      42   17097   17103      42   17109
   17112      41   17106   17109      42   17106   17112      42   17118   17121
      41   17115   17118      42   17115   17121      42   17127   17130      41
   17124   17127      42   17124   17130      42   17136   17139      41   17133
   17136      42   17133   17139      42   17145   17148      41   17142   17145
      42   17142   17148      42   17154   17157      41   17151   17154      42
   17151   17157      42   17163   17166      41   17160   17163      42   17160
   17166      42   17172   17175      41   17169   17172      42   17169   17175
      42   17181   17184      41   17178   17181      42   17178   17184      42
   17190   17193      41   17187   17190      42   17187   17193      42   17199
   17202      41   17196   17199      42   17196   17202      42   17208   17211
      41   17205   17208      42   17205   17211      42   17217   17220      41
   17214   17217      42   17214   17220      42   17226   17229      41   17223
   17226      42   17223   17229      42   17235   17238      41   17232   17235
      42   17232   17238      42   17244   17247      41   17241   17244      42
   17241   17247      42   17253   17256      41   17250   17253      42   17250
   17256      42   17262   17265      41   17259   17262      42   17259   17265
      42   17271   17274      41   17268   17271      42   17268   17274      42
   17280   17283      41   17277   17280      42   17277   17283      42   17289
   17292      41   17286   17289      42   17286   17292      42   17298   17301
      41   17295   17298      42   17295   17301      42   17307   17310      41
   17304   17307      42   17304   17310      42   17316   17319      41   17313
   17316      42   17313   17319      42   17325   17328      41   17322   17325
      42   17322   17328      42   17334   17337      41   17331   17334      42
   17331   17337      42   17343   17346      41   17340   17343      42   17340
   17346      42   17352   17355      41   17349   17352      42   17349   17355
      42   17361   17364      41   17358   17361      42   17358   17364      42
   17370   17373      41   17367   17370      42   17367   17373      42   17379
   17382      41   17376   17379      42   17376   17382      42   17388   17391
      41   17385   17388      42   17385   17391      42   17397   17400      41
   17394   17397      42   17394   17400      42   17406   17409      41   17403
   17406      42   17403   17409      42   17415   17418      41   17412   17415
      42   17412   17418      42   17424   17427      41   17421   17424      42
   17421   17427      42   17433   17436      41   17430   17433      42   17430
   17436      42   17442   17445      41   17439   17442      42   17439   17445
      42   17451   17454      41   17448   17451      42   17448   17454      42
   17460   17463      41   17457   17460      42   17457   17463      42   17469
   17472      41   17466   17469      42   17466   17472      42   17478   17481
      41   17475   17478      42   17475   17481      42   17487   17490      41
   17484   17487      42   17484   17490      42   17496   17499      41   17493
   17496      42   17493   17499      42   17505   17508      41   17502   17505
      42   17502   17508      42   17514   17517      41   17511   17514      42
   17511   17517      42   17523   17526      41   17520   17523      42   17520
   17526      42   17532   17535      41   17529   17532      42   17529   17535
      42   17541   17544      41   17538   17541      42   17538   17544      42
   17550   17553      41   17547   17550      42   17547   17553      42   17559
   17562      41   17556   17559      42   17556   17562      42   17568   17571
      41   17565   17568      42   17565   17571      42   17577   17580      41
   17574   17577      42   17574   17580      42   17586   17589      41   17583
   17586      42   17583   17589      42   17595   17598      41   17592   17595
      42   17592   17598      42   17604   17607      41   17601   17604      42
   17601   17607      42   17613   17616      41   17610   17613      42   17610
   17616      42   17622   17625      41   17619   17622      42   17619   17625
      42   17631   17634      41   17628   17631      42   17628   17634      42
   17640   17643      41   17637   17640      42   17637   17643      42   17649
   17652      41   17646   17649      42   17646   17652      42   17658   17661
      41   17655   17658      42   17655   17661      42   17667   17670      41
   17664   17667      42   17664   17670      42   17676   17679      41   17673
   17676      42   17673   17679      42   17685   17688      41   17682   17685
      42   17682   17688      42   17694   17697      41   17691   17694      42
   17691   17697      42   17703   17706      41   17700   17703      42   17700
   17706      42   17712   17715      41   17709   17712      42   17709   17715
      42   17721   17724      41   17718   17721      42   17718   17724      42
   17730   17733      41   17727   17730      42   17727   17733      42   17739
   17742      41   17736   17739      42   17736   17742      42   17748   17751
      41   17745   17748      42   17745   17751      42   17757   17760      41
   17754   17757      42   17754   17760      42   17766   17769      41   17763
   17766      42   17763   17769      42   17775   17778      41   17772   17775
      42   17772   17778      42   17784   17787      41   17781   17784      42
   17781   17787      42   17793   17796      41   17790   17793      42   17790
   17796      42   17802   17805      41   17799   17802      42   17799   17805
      42   17811   17814      41   17808   17811      42   17808   17814      42
   17820   17823      41   17817   17820      42   17817   17823      42   17829
   17832      41   17826   17829      42   17826   17832      42   17838   17841
      41   17835   17838      42   17835   17841      42   17847   17850      41
   17844   17847      42   17844   17850      42   17856   17859      41   17853
   17856      42   17853   17859      42   17865   17868      41   17862   17865
      42   17862   17868      42   17874   17877      41   17871   17874      42
   17871   17877      42   17883   17886      41   17880   17883      42   17880
   17886      42   17892   17895      41   17889   17892      42   17889   17895
      42   17901   17904      41   17898   17901      42   17898   17904      42
   17910   17913      41   17907   17910      42   17907   17913      42   17919
   17922      41   17916   17919      42   17916   17922      42   17928   17931
      41   17925   17928      42   17925   17931      42   17937   17940      41
   17934   17937      42   17934   17940      42   17946   17949      41   17943
   17946      42   17943   17949      42   17955   17958      41   17952   17955
      42   17952   17958      42   17964   17967      41   17961   17964      42
   17961   17967      42   17973   17976      41   17970   17973      42   17970
   17976      42   17982   17985      41   17979   17982      42   17979   17985
      42   17991   17994      41   17988   17991      42   17988   17994      42
   18000   18003      41   17997   18000      42   17997   18003      42   18009
   18012      41   18006   18009      42   18006   18012      42   18018   18021
      41   18015   18018      42   18015   18021      42   18027   18030      41
   18024   18027      42   18024   18030      42   18036   18039      41   18033
   18036      42   18033   18039      42   18045   18048      41   18042   18045
      42   18042   18048      42   18054   18057      41   18051   18054      42
   18051   18057      42   18063   18066      41   18060   18063      42   18060
   18066      42   18072   18075      41   18069   18072      42   18069   18075
      42   18081   18084      41   18078   18081      42   18078   18084      42
   18090   18093      41   18087   18090      42   18087   18093      42   18099
   18102      41   18096   18099      42   18096   18102      42   18108   18111
      41   18105   18108      42   18105   18111      42   18117   18120      41
   18114   18117      42   18114   18120      42   18126   18129      41   18123
   18126      42   18123   18129      42   18135   18138      41   18132   18135
      42   18132   18138      42   18144   18147      41   18141   18144      42
   18141   18147      42   18153   18156      41   18150   18153      42   18150
   18156      42   18162   18165      41   18159   18162      42   18159   18165
      42   18171   18174      41   18168   18171      42   18168   18174      42
   18180   18183      41   18177   18180      42   18177   18183      42   18189
   18192      41   18186   18189      42   18186   18192      42   18198   18201
      41   18195   18198      42   18195   18201      42   18207   18210      41
   18204   18207      42   18204   18210      42   18216   18219      41   18213
   18216      42   18213   18219      42   18225   18228      41   18222   18225
      42   18222   18228      42   18234   18237      41   18231   18234      42
   18231   18237      42   18243   18246      41   18240   18243      42   18240
   18246      42   18252   18255      41   18249   18252      42   18249   18255
      42   18261   18264      41   18258   18261      42   18258   18264      42
   18270   18273      41   18267   18270      42   18267   18273      42   18279
   18282      41   18276   18279      42   18276   18282      42   18288   18291
      41   18285   18288      42   18285   18291      42   18297   18300      41
   18294   18297      42   18294   18300      42   18306   18309      41   18303
   18306      42   18303   18309      42   18315   18318      41   18312   18315
      42   18312   18318      42   18324   18327      41   18321   18324      42
   18321   18327      42   18333   18336      41   18330   18333      42   18330
   18336      42   18342   18345      41   18339   18342      42   18339   18345
      42   18351   18354      41   18348   18351      42   18348   18354      42
   18360   18363      41   18357   18360      42   18357   18363      42   18369
   18372      41   18366   18369      42   18366   18372      42   18378   18381
      41   18375   18378      42   18375   18381      42   18387   18390      41
   18384   18387      42   18384   18390      42   18396   18399      41   18393
   18396      42   18393   18399      42   18405   18408      41   18402   18405
      42   18402   18408      42   18414   18417      41   18411   18414      42
   18411   18417      42   18423   18426      41   18420   18423      42   18420
   18426      42   18432   18435      41   18429   18432      42   18429   18435
      42   18441   18444      41   18438   18441      42   18438   18444      42
   18450   18453      41   18447   18450      42   18447   18453      42   18459
   18462      41   18456   18459      42   18456   18462      42   18468   18471
      41   18465   18468      42   18465   18471      42   18477   18480      41
   18474   18477      42   18474   18480      42   18486   18489      41   18483
   18486      42   18483   18489      42   18495   18498      41   18492   18495
      42   18492   18498      42   18504   18507      41   18501   18504      42
   18501   18507      42   18513   18516      41   18510   18513      42   18510
   18516      42   18522   18525      41   18519   18522      42   18519   18525
      42   18531   18534      41   18528   18531      42   18528   18534      42
   18540   18543      41   18537   18540      42   18537   18543      42   18549
   18552      41   18546   18549      42   18546   18552      42   18558   18561
      41   18555   18558      42   18555   18561      42   18567   18570      41
   18564   18567      42   18564   18570      42   18576   18579      41   18573
   18576      42   18573   18579      42   18585   18588      41   18582   18585
      42   18582   18588      42   18594   18597      41   18591   18594      42
   18591   18597      42   18603   18606      41   18600   18603      42   18600
   18606      42   18612   18615      41   18609   18612      42   18609   18615
      42   18621   18624      41   18618   18621      42   18618   18624      42
   18630   18633      41   18627   18630      42   18627   18633      42   18639
   18642      41   18636   18639      42   18636   18642      42   18648   18651
      41   18645   18648      42   18645   18651      42   18657   18660      41
   18654   18657      42   18654   18660      42   18666   18669      41   18663
   18666      42   18663   18669      42   18675   18678      41   18672   18675
      42   18672   18678      42   18684   18687      41   18681   18684      42
   18681   18687      42   18693   18696      41   18690   18693      42   18690
   18696      42   18702   18705      41   18699   18702      42   18699   18705
      42   18711   18714      41   18708   18711      42   18708   18714      42
   18720   18723      41   18717   18720      42   18717   18723      42   18729
   18732      41   18726   18729      42   18726   18732      42   18738   18741
      41   18735   18738      42   18735   18741      42   18747   18750      41
   18744   18747      42   18744   18750      42   18756   18759      41   18753
   18756      42   18753   18759      42   18765   18768      41   18762   18765
      42   18762   18768      42   18774   18777      41   18771   18774      42
   18771   18777      42   18783   18786      41   18780   18783      42   18780
   18786      42   18792   18795      41   18789   18792      42   18789   18795
      42   18801   18804      41   18798   18801      42   18798   18804      42
   18810   18813      41   18807   18810      42   18807   18813      42   18819
   18822      41   18816   18819      42   18816   18822      42   18828   18831
      41   18825   18828      42   18825   18831      42   18837   18840      41
   18834   18837      42   18834   18840      42   18846   18849      41   18843
   18846      42   18843   18849      42   18855   18858      41   18852   18855
      42   18852   18858      42   18864   18867      41   18861   18864      42
   18861   18867      42   18873   18876      41   18870   18873      42   18870
   18876      42   18882   18885      41   18879   18882      42   18879   18885
      42   18891   18894      41   18888   18891      42   18888   18894      42
   18900   18903      41   18897   18900      42   18897   18903      42   18909
   18912      41   18906   18909      42   18906   18912      42   18918   18921
      41   18915   18918      42   18915   18921      42   18927   18930      41
   18924   18927      42   18924   18930      42   18936   18939      41   18933
   18936      42   18933   18939      42   18945   18948      41   18942   18945
      42   18942   18948      42   18954   18957      41   18951   18954      42
   18951   18957      42   18963   18966      41   18960   18963      42   18960
   18966      42   18972   18975      41   18969   18972      42   18969   18975
      42   18981   18984      41   18978   18981      42   18978   18984      42
   18990   18993      41   18987   18990      42   18987   18993      42   18999
   19002      41   18996   18999      42   18996   19002      42   19008   19011
      41   19005   19008      42   19005   19011      42   19017   19020      41
   19014   19017      42   19014   19020      42   19026   19029      41   19023
   19026      42   19023   19029      42   19035   19038      41   19032   19035
      42   19032   19038      42   19044   19047      41   19041   19044      42
   19041   19047      42   19053   19056      41   19050   19053      42   19050
   19056      42   19062   19065      41   19059   19062      42   19059   19065
      42   19071   19074      41   19068   19071      42   19068   19074      42
   19080   19083      41   19077   19080      42   19077   19083      42   19089
   19092      41   19086   19089      42   19086   19092      42   19098   19101
      41   19095   19098      42   19095   19101      42   19107   19110      41
   19104   19107      42   19104   19110      42   19116   19119      41   19113
   19116      42   19113   19119      42   19125   19128      41   19122   19125
      42   19122   19128      42   19134   19137      41   19131   19134      42
   19131   19137      42   19143   19146      41   19140   19143      42   19140
   19146      42   19152   19155      41   19149   19152      42   19149   19155
      42   19161   19164      41   19158   19161      42   19158   19164      42
   19170   19173      41   19167   19170      42   19167   19173      42   19179
   19182      41   19176   19179      42   19176   19182      42   19188   19191
      41   19185   19188      42   19185   19191      42   19197   19200      41
   19194   19197      42   19194   19200      42   19206   19209      41   19203
   19206      42   19203   19209      42   19215   19218      41   19212   19215
      42   19212   19218      42   19224   19227      41   19221   19224      42
   19221   19227      42   19233   19236      41   19230   19233      42   19230
   19236      42   19242   19245      41   19239   19242      42   19239   19245
      42   19251   19254      41   19248   19251      42   19248   19254      42
   19260   19263      41   19257   19260      42   19257   19263      42   19269
   19272      41   19266   19269      42   19266   19272      42   19278   19281
      41   19275   19278      42   19275   19281      42   19287   19290      41
   19284   19287      42   19284   19290      42   19296   19299      41   19293
   19296      42   19293   19299      42   19305   19308      41   19302   19305
      42   19302   19308      42   19314   19317      41   19311   19314      42
   19311   19317      42   19323   19326      41   19320   19323      42   19320
   19326      42   19332   19335      41   19329   19332      42   19329   19335
      42   19341   19344      41   19338   19341      42   19338   19344      42
   19350   19353      41   19347   19350      42   19347   19353      42   19359
   19362      41   19356   19359      42   19356   19362      42   19368   19371
      41   19365   19368      42   19365   19371      42   19377   19380      41
   19374   19377      42   19374   19380      42   19386   19389      41   19383
   19386      42   19383   19389      42   19395   19398      41   19392   19395
      42   19392   19398      42   19404   19407      41   19401   19404      42
   19401   19407      42   19413   19416      41   19410   19413      42   19410
   19416      42   19422   19425      41   19419   19422      42   19419   19425
      42   19431   19434      41   19428   19431      42   19428   19434      42
   19440   19443      41   19437   19440      42   19437   19443      42   19449
   19452      41   19446   19449      42   19446   19452      42   19458   19461
      41   19455   19458      42   19455   19461      42   19467   19470      41
   19464   19467      42   19464   19470      42   19476   19479      41   19473
   19476      42   19473   19479      42   19485   19488      41   19482   19485
      42   19482   19488      42   19494   19497      41   19491   19494      42
   19491   19497      42   19503   19506      41   19500   19503      42   19500
   19506      42   19512   19515      41   19509   19512      42   19509   19515
      42   19521   19524      41   19518   19521      42   19518   19524      42
   19530   19533      41   19527   19530      42   19527   19533      42   19539
   19542      41   19536   19539      42   19536   19542      42   19548   19551
      41   19545   19548      42   19545   19551      42   19557   19560      41
   19554   19557      42   19554   19560      42   19566   19569      41   19563
   19566      42   19563   19569      42   19575   19578      41   19572   19575
      42   19572   19578      42   19584   19587      41   19581   19584      42
   19581   19587      42   19593   19596      41   19590   19593      42   19590
   19596      42   19602   19605      41   19599   19602      42   19599   19605
      42   19611   19614      41   19608   19611      42   19608   19614      42
   19620   19623      41   19617   19620      42   19617   19623      42   19629
   19632      41   19626   19629      42   19626   19632      42   19638   19641
      41   19635   19638      42   19635   19641      42   19647   19650      41
   19644   19647      42   19644   19650      42   19656   19659      41   19653
   19656      42   19653   19659      42   19665   19668      41   19662   19665
      42   19662   19668      42   19674   19677      41   19671   19674      42
   19671   19677      42   19683   19686      41   19680   19683      42   19680
   19686      42   19692   19695      41   19689   19692      42   19689   19695
      42   19701   19704      41   19698   19701      42   19698   19704      42
   19710   19713      41   19707   19710      42   19707   19713      42   19719
   19722      41   19716   19719      42   19716   19722      42   19728   19731
      41   19725   19728      42   19725   19731      42   19737   19740      41
   19734   19737      42   19734   19740      42   19746   19749      41   19743
   19746      42   19743   19749      42   19755   19758      41   19752   19755
      42   19752   19758      42   19764   19767      41   19761   19764      42
   19761   19767      42   19773   19776      41   19770   19773      42   19770
   19776      42   19782   19785      41   19779   19782      42   19779   19785
      42   19791   19794      41   19788   19791      42   19788   19794      42
   19800   19803      41   19797   19800      42   19797   19803      42   19809
   19812      41   19806   19809      42   19806   19812      42   19818   19821
      41   19815   19818      42   19815   19821      42   19827   19830      41
   19824   19827      42   19824   19830      42   19836   19839      41   19833
   19836      42   19833   19839      42   19845   19848      41   19842   19845
      42   19842   19848      42   19854   19857      41   19851   19854      42
   19851   19857      42   19863   19866      41   19860   19863      42   19860
   19866      42   19872   19875      41   19869   19872      42   19869   19875
      42   19881   19884      41   19878   19881      42   19878   19884      42
   19890   19893      41   19887   19890      42   19887   19893      42   19899
   19902      41   19896   19899      42   19896   19902      42   19908   19911
      41   19905   19908      42   19905   19911      42   19917   19920      41
   19914   19917      42   19914   19920      42   19926   19929      41   19923
   19926      42   19923   19929      42   19935   19938      41   19932   19935
      42   19932   19938      42   19944   19947      41   19941   19944      42
   19941   19947      42   19953   19956      41   19950   19953      42   19950
   19956      42   19962   19965      41   19959   19962      42   19959   19965
      42   19971   19974      41   19968   19971      42   19968   19974      42
   19980   19983      41   19977   19980      42   19977   19983      42   19989
   19992      41   19986   19989      42   19986   19992      42   19998   20001
      41   19995   19998      42   19995   20001      42   20007   20010      41
   20004   20007      42   20004   20010      42   20016   20019      41   20013
   20016      42   20013   20019      42   20025   20028      41   20022   20025
      42   20022   20028      42   20034   20037      41   20031   20034      42
   20031   20037      42   20043   20046      41   20040   20043      42   20040
   20046      42   20052   20055      41   20049   20052      42   20049   20055
      42   20061   20064      41   20058   20061      42   20058   20064      42
   20070   20073      41   20067   20070      42   20067   20073      42   20079
   20082      41   20076   20079      42   20076   20082      42   20088   20091
      41   20085   20088      42   20085   20091      42   20097   20100      41
   20094   20097      42   20094   20100      42   20106   20109      41   20103
   20106      42   20103   20109      42   20115   20118      41   20112   20115
      42   20112   20118      42   20124   20127      41   20121   20124      42
   20121   20127      42   20133   20136      41   20130   20133      42   20130
   20136      42   20142   20145      41   20139   20142      42   20139   20145
      42   20151   20154      41   20148   20151      42   20148   20154      42
   20160   20163      41   20157   20160      42   20157   20163      42   20169
   20172      41   20166   20169      42   20166   20172      42   20178   20181
      41   20175   20178      42   20175   20181      42   20187   20190      41
   20184   20187      42   20184   20190      42   20196   20199      41   20193
   20196      42   20193   20199      42   20205   20208      41   20202   20205
      42   20202   20208      42   20214   20217      41   20211   20214      42
   20211   20217      42   20223   20226      41   20220   20223      42   20220
   20226      42   20232   20235      41   20229   20232      42   20229   20235
      42   20241   20244      41   20238   20241      42   20238   20244      42
   20250   20253      41   20247   20250      42   20247   20253      42   20259
   20262      41   20256   20259      42   20256   20262      42   20268   20271
      41   20265   20268      42   20265   20271      42   20277   20280      41
   20274   20277      42   20274   20280      42   20286   20289      41   20283
   20286      42   20283   20289      42   20295   20298      41   20292   20295
      42   20292   20298      42   20304   20307      41   20301   20304      42
   20301   20307      42   20313   20316      41   20310   20313      42   20310
   20316      42   20322   20325      41   20319   20322      42   20319   20325
      42   20331   20334      41   20328   20331      42   20328   20334      42
   20340   20343      41   20337   20340      42   20337   20343      42   20349
   20352      41   20346   20349      42   20346   20352      42   20358   20361
      41   20355   20358      42   20355   20361      42   20367   20370      41
   20364   20367      42   20364   20370      42   20376   20379      41   20373
   20376      42   20373   20379      42   20385   20388      41   20382   20385
      42   20382   20388      42   20394   20397      41   20391   20394      42
   20391   20397      42   20403   20406      41   20400   20403      42   20400
   20406      42   20412   20415      41   20409   20412      42   20409   20415
      42   20421   20424      41   20418   20421      42   20418   20424      42
   20430   20433      41   20427   20430      42   20427   20433      42   20439
   20442      41   20436   20439      42   20436   20442      42   20448   20451
      41   20445   20448      42   20445   20451      42   20457   20460      41
   20454   20457      42   20454   20460      42   20466   20469      41   20463
   20466      42   20463   20469      42   20475   20478      41   20472   20475
      42   20472   20478      42   20484   20487      41   20481   20484      42
   20481   20487      42   20493   20496      41   20490   20493      42   20490
   20496      42   20502   20505      41   20499   20502      42   20499   20505
      42   20511   20514      41   20508   20511      42   20508   20514      42
   20520   20523      41   20517   20520      42   20517   20523      42   20529
   20532      41   20526   20529      42   20526   20532      42   20538   20541
      41   20535   20538      42   20535   20541      42   20547   20550      41
   20544   20547      42   20544   20550      42   20556   20559      41   20553
   20556      42   20553   20559      42   20565   20568      41   20562   20565
      42   20562   20568      42   20574   20577      41   20571   20574      42
   20571   20577      42   20583   20586      41   20580   20583      42   20580
   20586      42   20592   20595      41   20589   20592      42   20589   20595
      42   20601   20604      41   20598   20601      42   20598   20604      42
   20610   20613      41   20607   20610      42   20607   20613      42   20619
   20622      41   20616   20619      42   20616   20622      42   20628   20631
      41   20625   20628      42   20625   20631      42   20637   20640      41
   20634   20637      42   20634   20640      42   20646   20649      41   20643
   20646      42   20643   20649      42   20655   20658      41   20652   20655
      42   20652   20658      42   20664   20667      41   20661   20664      42
   20661   20667      42   20673   20676      41   20670   20673      42   20670
   20676      42   20682   20685      41   20679   20682      42   20679   20685
      42   20691   20694      41   20688   20691      42   20688   20694      42
   20700   20703      41   20697   20700      42   20697   20703      42   20709
   20712      41   20706   20709      42   20706   20712      42   20718   20721
      41   20715   20718      42   20715   20721      42   20727   20730      41
   20724   20727      42   20724   20730      42   20736   20739      41   20733
   20736      42   20733   20739      42   20745   20748      41   20742   20745
      42   20742   20748      42   20754   20757      41   20751   20754      42
   20751   20757      42   20763   20766      41   20760   20763      42   20760
   20766      42   20772   20775      41   20769   20772      42   20769   20775
      42   20781   20784      41   20778   20781      42   20778   20784      42
   20790   20793      41   20787   20790      42   20787   20793      42   20799
   20802      41   20796   20799      42   20796   20802      42   20808   20811
      41   20805   20808      42   20805   20811      42   20817   20820      41
   20814   20817      42   20814   20820      42   20826   20829      41   20823
   20826      42   20823   20829      42   20835   20838      41   20832   20835
      42   20832   20838      42   20844   20847      41   20841   20844      42
   20841   20847      42   20853   20856      41   20850   20853      42   20850
   20856      42   20862   20865      41   20859   20862      42   20859   20865
      42   20871   20874      41   20868   20871      42   20868   20874      42
   20880   20883      41   20877   20880      42   20877   20883      42   20889
   20892      41   20886   20889      42   20886   20892      42   20898   20901
      41   20895   20898      42   20895   20901      42   20907   20910      41
   20904   20907      42   20904   20910      42   20916   20919      41   20913
   20916      42   20913   20919      42   20925   20928      41   20922   20925
      42   20922   20928      42   20934   20937      41   20931   20934      42
   20931   20937      42   20943   20946      41   20940   20943      42   20940
   20946      42   20952   20955      41   20949   20952      42   20949   20955
      42   20961   20964      41   20958   20961      42   20958   20964      42
   20970   20973      41   20967   20970      42   20967   20973      42   20979
   20982      41   20976   20979      42   20976   20982      42   20988   20991
      41   20985   20988      42   20985   20991      42   20997   21000      41
   20994   20997      42   20994   21000      42   21006   21009      41   21003
   21006      42   21003   21009      42   21015   21018      41   21012   21015
      42   21012   21018      42   21024   21027      41   21021   21024      42
   21021   21027      42   21033   21036      41   21030   21033      42   21030
   21036      42   21042   21045      41   21039   21042      42   21039   21045
      42   21051   21054      41   21048   21051      42   21048   21054      42
   21060   21063      41   21057   21060      42   21057   21063      42   21069
   21072      41   21066   21069      42   21066   21072      42   21078   21081
      41   21075   21078      42   21075   21081      42   21087   21090      41
   21084   21087      42   21084   21090      42   21096   21099      41   21093
   21096      42   21093   21099      42   21105   21108      41   21102   21105
      42   21102   21108      42   21114   21117      41   21111   21114      42
   21111   21117      42   21123   21126      41   21120   21123      42   21120
   21126      42   21132   21135      41   21129   21132      42   21129   21135
      42   21141   21144      41   21138   21141      42   21138   21144      42
   21150   21153      41   21147   21150      42   21147   21153      42   21159
   21162      41   21156   21159      42   21156   21162      42   21168   21171
      41   21165   21168      42   21165   21171      42   21177   21180      41
   21174   21177      42   21174   21180      42   21186   21189      41   21183
   21186      42   21183   21189      42   21195   21198      41   21192   21195
      42   21192   21198      42   21204   21207      41   21201   21204      42
   21201   21207      42   21213   21216      41   21210   21213      42   21210
   21216      42   21222   21225      41   21219   21222      42   21219   21225
      42   21231   21234      41   21228   21231      42   21228   21234      42
   21240   21243      41   21237   21240      42   21237   21243      42   21249
   21252      41   21246   21249      42   21246   21252      42   21258   21261
      41   21255   21258      42   21255   21261      42   21267   21270      41
   21264   21267      42   21264   21270      42   21276   21279      41   21273
   21276      42   21273   21279      42   21285   21288      41   21282   21285
      42   21282   21288      42   21294   21297      41   21291   21294      42
   21291   21297      42   21303   21306      41   21300   21303      42   21300
   21306      42   21312   21315      41   21309   21312      42   21309   21315
      42   21321   21324      41   21318   21321      42   21318   21324      42
   21330   21333      41   21327   21330      42   21327   21333      42   21339
   21342      41   21336   21339      42   21336   21342      42   21348   21351
      41   21345   21348      42   21345   21351      42   21357   21360      41
   21354   21357      42   21354   21360      42   21366   21369      41   21363
   21366      42   21363   21369      42   21375   21378      41   21372   21375
      42   21372   21378      42   21384   21387      41   21381   21384      42
   21381   21387      42   21393   21396      41   21390   21393      42   21390
   21396      42   21402   21405      41   21399   21402      42   21399   21405
      42   21411   21414      41   21408   21411      42   21408   21414      42
   21420   21423      41   21417   21420      42   21417   21423      42   21429
   21432      41   21426   21429      42   21426   21432      42   21438   21441
      41   21435   21438      42   21435   21441      42   21447   21450      41
   21444   21447      42   21444   21450      42   21456   21459      41   21453
   21456      42   21453   21459      42   21465   21468      41   21462   21465
      42   21462   21468      42   21474   21477      41   21471   21474      42
   21471   21477      42   21483   21486      41   21480   21483      42   21480
   21486      42   21492   21495      41   21489   21492      42   21489   21495
      42   21501   21504      41   21498   21501      42   21498   21504      42
   21510   21513      41   21507   21510      42   21507   21513      42   21519
   21522      41   21516   21519      42   21516   21522      42   21528   21531
      41   21525   21528      42   21525   21531      42   21537   21540      41
   21534   21537      42   21534   21540      42   21546   21549      41   21543
   21546      42   21543   21549      42   21555   21558      41   21552   21555
      42   21552   21558      42   21564   21567      41   21561   21564      42
   21561   21567      42   21573   21576      41   21570   21573      42   21570
   21576      42   21582   21585      41   21579   21582      42   21579   21585
      42   21591   21594      41   21588   21591      42   21588   21594      42
   21600   21603      41   21597   21600      42   21597   21603      42   21609
   21612      41   21606   21609      42   21606   21612      42   21618   21621
      41   21615   21618      42   21615   21621      42   21627   21630      41
   21624   21627      42   21624   21630      42   21636   21639      41   21633
   21636      42   21633   21639      42   21645   21648      41   21642   21645
      42   21642   21648      42   21654   21657      41   21651   21654      42
   21651   21657      42   21663   21666      41   21660   21663      42   21660
   21666      42   21672   21675      41   21669   21672      42   21669   21675
      42   21681   21684      41   21678   21681      42   21678   21684      42
   21690   21693      41   21687   21690      42   21687   21693      42   21699
   21702      41   21696   21699      42   21696   21702      42   21708   21711
      41   21705   21708      42   21705   21711      42   21717   21720      41
   21714   21717      42   21714   21720      42   21726   21729      41   21723
   21726      42   21723   21729      42   21735   21738      41   21732   21735
      42   21732   21738      42   21744   21747      41   21741   21744      42
   21741   21747      42   21753   21756      41   21750   21753      42   21750
   21756      42   21762   21765      41   21759   21762      42   21759   21765
      42   21771   21774      41   21768   21771      42   21768   21774      42
   21780   21783      41   21777   21780      42   21777   21783      42   21789
   21792      41   21786   21789      42   21786   21792      42   21798   21801
      41   21795   21798      42   21795   21801      42   21807   21810      41
   21804   21807      42   21804   21810      42   21816   21819      41   21813
   21816      42   21813   21819      42   21825   21828      41   21822   21825
      42   21822   21828      42   21834   21837      41   21831   21834      42
   21831   21837      42   21843   21846      41   21840   21843      42   21840
   21846      42   21852   21855      41   21849   21852      42   21849   21855
      42   21861   21864      41   21858   21861      42   21858   21864      42
   21870   21873      41   21867   21870      42   21867   21873      42   21879
   21882      41   21876   21879      42   21876   21882      42   21888   21891
      41   21885   21888      42   21885   21891      42   21897   21900      41
   21894   21897      42   21894   21900      42   21906   21909      41   21903
   21906      42   21903   21909      42   21915   21918      41   21912   21915
      42   21912   21918      42   21924   21927      41   21921   21924      42
   21921   21927      42   21933   21936      41   21930   21933      42   21930
   21936      42   21942   21945      41   21939   21942      42   21939   21945
      42   21951   21954      41   21948   21951      42   21948   21954      42
   21960   21963      41   21957   21960      42   21957   21963      42   21969
   21972      41   21966   21969      42   21966   21972      42   21978   21981
      41   21975   21978      42   21975   21981      42   21987   21990      41
   21984   21987      42   21984   21990      42   21996   21999      41   21993
   21996      42   21993   21999      42   22005   22008      41   22002   22005
      42   22002   22008      42   22014   22017      41   22011   22014      42
   22011   22017      42   22023   22026      41   22020   22023      42   22020
   22026      42   22032   22035      41   22029   22032      42   22029   22035
      42   22041   22044      41   22038   22041      42   22038   22044      42
   22050   22053      41   22047   22050      42   22047   22053      42   22059
   22062      41   22056   22059      42   22056   22062      42   22068   22071
      41   22065   22068      42   22065   22071      42   22077   22080      41
   22074   22077      42   22074   22080      42   22086   22089      41   22083
   22086      42   22083   22089      42   22095   22098      41   22092   22095
      42   22092   22098      42   22104   22107      41   22101   22104      42
   22101   22107      42   22113   22116      41   22110   22113      42   22110
   22116      42   22122   22125      41   22119   22122      42   22119   22125
      42   22131   22134      41   22128   22131      42   22128   22134      42
   22140   22143      41   22137   22140      42   22137   22143      42   22149
   22152      41   22146   22149      42   22146   22152      42   22158   22161
      41   22155   22158      42   22155   22161      42   22167   22170      41
   22164   22167      42   22164   22170      42   22176   22179      41   22173
   22176      42   22173   22179      42   22185   22188      41   22182   22185
      42   22182   22188      42   22194   22197      41   22191   22194      42
   22191   22197      42   22203   22206      41   22200   22203      42   22200
   22206      42   22212   22215      41   22209   22212      42   22209   22215
      42   22221   22224      41   22218   22221      42   22218   22224      42
   22230   22233      41   22227   22230      42   22227   22233      42   22239
   22242      41   22236   22239      42   22236   22242      42   22248   22251
      41   22245   22248      42   22245   22251      42   22257   22260      41
   22254   22257      42   22254   22260      42   22266   22269      41   22263
   22266      42   22263   22269      42   22275   22278      41   22272   22275
      42   22272   22278      42   22284   22287      41   22281   22284      42
   22281   22287      42   22293   22296      41   22290   22293      42   22290
   22296      42   22302   22305      41   22299   22302      42   22299   22305
      42   22311   22314      41   22308   22311      42   22308   22314      42
   22320   22323      41   22317   22320      42   22317   22323      42   22329
   22332      41   22326   22329      42   22326   22332      42   22338   22341
      41   22335   22338      42   22335   22341      42   22347   22350      41
   22344   22347      42   22344   22350      42   22356   22359      41   22353
   22356      42   22353   22359      42   22365   22368      41   22362   22365
      42   22362   22368      42   22374   22377      41   22371   22374      42
   22371   22377      42   22383   22386      41   22380   22383      42   22380
   22386      42   22392   22395      41   22389   22392      42   22389   22395
      42   22401   22404      41   22398   22401      42   22398   22404      42
   22410   22413      41   22407   22410      42   22407   22413      42   22419
   22422      41   22416   22419      42   22416   22422      42   22428   22431
      41   22425   22428      42   22425   22431      42   22437   22440      41
   22434   22437      42   22434   22440      42   22446   22449      41   22443
   22446      42   22443   22449      42   22455   22458      41   22452   22455
      42   22452   22458      42   22464   22467      41   22461   22464      42
   22461   22467      42   22473   22476      41   22470   22473      42   22470
   22476      42   22482   22485      41   22479   22482      42   22479   22485
      42   22491   22494      41   22488   22491      42   22488   22494      42
   22500   22503      41   22497   22500      42   22497   22503      42   22509
   22512      41   22506   22509      42   22506   22512      42   22518   22521
      41   22515   22518      42   22515   22521      42   22527   22530      41
   22524   22527      42   22524   22530      42   22536   22539      41   22533
   22536      42   22533   22539      42   22545   22548      41   22542   22545
      42   22542   22548      42   22554   22557      41   22551   22554      42
   22551   22557      42   22563   22566      41   22560   22563      42   22560
   22566      42   22572   22575      41   22569   22572      42   22569   22575
      42   22581   22584      41   22578   22581      42   22578   22584      42
   22590   22593      41   22587   22590      42   22587   22593      42   22599
   22602      41   22596   22599      42   22596   22602      42   22608   22611
      41   22605   22608      42   22605   22611      42   22617   22620      41
   22614   22617      42   22614   22620      42   22626   22629      41   22623
   22626      42   22623   22629      42   22635   22638      41   22632   22635
      42   22632   22638      42   22644   22647      41   22641   22644      42
   22641   22647      42   22653   22656      41   22650   22653      42   22650
   22656      42   22662   22665      41   22659   22662      42   22659   22665
      42   22671   22674      41   22668   22671      42   22668   22674      42
   22680   22683      41   22677   22680      42   22677   22683      42   22689
   22692      41   22686   22689      42   22686   22692      42   22698   22701
      41   22695   22698      42   22695   22701      42   22707   22710      41
   22704   22707      42   22704   22710      42   22716   22719      41   22713
   22716      42   22713   22719      42   22725   22728      41   22722   22725
      42   22722   22728      42   22734   22737      41   22731   22734      42
   22731   22737      42   22743   22746      41   22740   22743      42   22740
   22746      42   22752   22755      41   22749   22752      42   22749   22755
      42   22761   22764      41   22758   22761      42   22758   22764      42
   22770   22773      41   22767   22770      42   22767   22773      42   22779
   22782      41   22776   22779      42   22776   22782      42   22788   22791
      41   22785   22788      42   22785   22791      42   22797   22800      41
   22794   22797      42   22794   22800      42   22806   22809      41   22803
   22806      42   22803   22809      42   22815   22818      41   22812   22815
      42   22812   22818      42   22824   22827      41   22821   22824      42
   22821   22827      42   22833   22836      41   22830   22833      42   22830
   22836      42   22842   22845      41   22839   22842      42   22839   22845
      42   22851   22854      41   22848   22851      42   22848   22854      42
   22860   22863      41   22857   22860      42   22857   22863      42   22869
   22872      41   22866   22869      42   22866   22872      42   22878   22881
      41   22875   22878      42   22875   22881      42   22887   22890      41
   22884   22887      42   22884   22890      42   22896   22899      41   22893
   22896      42   22893   22899      42   22905   22908      41   22902   22905
      42   22902   22908      42   22914   22917      41   22911   22914      42
   22911   22917      42   22923   22926      41   22920   22923      42   22920
   22926      42   22932   22935      41   22929   22932      42   22929   22935
      42   22941   22944      41   22938   22941      42   22938   22944      42
   22950   22953      41   22947   22950      42   22947   22953      42   22959
   22962      41   22956   22959      42   22956   22962      42   22968   22971
      41   22965   22968      42   22965   22971      42   22977   22980      41
   22974   22977      42   22974   22980      42   22986   22989      41   22983
   22986      42   22983   22989      42   22995   22998      41   22992   22995
      42   22992   22998      42   23004   23007      41   23001   23004      42
   23001   23007      42   23013   23016      41   23010   23013      42   23010
   23016      42   23022   23025      41   23019   23022      42   23019   23025
      42   23031   23034      41   23028   23031      42   23028   23034      42
   23040   23043      41   23037   23040      42   23037   23043      42   23049
   23052      41   23046   23049      42   23046   23052      42   23058   23061
      41   23055   23058      42   23055   23061      42   23067   23070      41
   23064   23067      42   23064   23070      42   23076   23079      41   23073
   23076      42   23073   23079      42   23085   23088      41   23082   23085
      42   23082   23088      42   23094   23097      41   23091   23094      42
   23091   23097      42   23103   23106      41   23100   23103      42   23100
   23106      42   23112   23115      41   23109   23112      42   23109   23115
      42   23121   23124      41   23118   23121      42   23118   23124      42
   23130   23133      41   23127   23130      42   23127   23133      42   23139
   23142      41   23136   23139      42   23136   23142      42   23148   23151
      41   23145   23148      42   23145   23151      42   23157   23160      41
   23154   23157      42   23154   23160      42   23166   23169      41   23163
   23166      42   23163   23169      42   23175   23178      41   23172   23175
      42   23172   23178      42   23184   23187      41   23181   23184      42
   23181   23187      42   23193   23196      41   23190   23193      42   23190
   23196      42   23202   23205      41   23199   23202      42   23199   23205
      42   23211   23214      41   23208   23211      42   23208   23214      42
   23220   23223      41   23217   23220      42   23217   23223      42   23229
   23232      41   23226   23229      42   23226   23232      42   23238   23241
      41   23235   23238      42   23235   23241      42   23247   23250      41
   23244   23247      42   23244   23250      42   23256   23259      41   23253
   23256      42   23253   23259      42   23265   23268      41   23262   23265
      42   23262   23268      42   23274   23277      41   23271   23274      42
   23271   23277      42   23283   23286      41   23280   23283      42   23280
   23286      42   23292   23295      41   23289   23292      42   23289   23295
      42   23301   23304      41   23298   23301      42   23298   23304      42
   23310   23313      41   23307   23310      42   23307   23313      42   23319
   23322      41   23316   23319      42   23316   23322      42   23328   23331
      41   23325   23328      42   23325   23331      42   23337   23340      41
   23334   23337      42   23334   23340      42   23346   23349      41   23343
   23346      42   23343   23349      42   23355   23358      41   23352   23355
      42   23352   23358      42   23364   23367      41   23361   23364      42
   23361   23367      42   23373   23376      41   23370   23373      42   23370
   23376      42   23382   23385      41   23379   23382      42   23379   23385
      42   23391   23394      41   23388   23391      42   23388   23394      42
   23400   23403      41   23397   23400      42   23397   23403      42   23409
   23412      41   23406   23409      42   23406   23412      42   23418   23421
      41   23415   23418      42   23415   23421      42   23427   23430      41
   23424   23427      42   23424   23430      42   23436   23439      41   23433
   23436      42   23433   23439      42   23445   23448      41   23442   23445
      42   23442   23448      42   23454   23457      41   23451   23454      42
   23451   23457      42   23463   23466      41   23460   23463      42   23460
   23466      42   23472   23475      41   23469   23472      42   23469   23475
      42   23481   23484      41   23478   23481      42   23478   23484      42
   23490   23493      41   23487   23490      42   23487   23493      42   23499
   23502      41   23496   23499      42   23496   23502      42   23508   23511
      41   23505   23508      42   23505   23511      42   23517   23520      41
   23514   23517      42   23514   23520      42   23526   23529      41   23523
   23526      42   23523   23529      42   23535   23538      41   23532   23535
      42   23532   23538      42   23544   23547      41   23541   23544      42
   23541   23547      42   23553   23556      41   23550   23553      42   23550
   23556      42   23562   23565      41   23559   23562      42   23559   23565
      42   23571   23574      41   23568   23571      42   23568   23574      42
   23580   23583      41   23577   23580      42   23577   23583      42   23589
   23592      41   23586   23589      42   23586   23592      42   23598   23601
      41   23595   23598      42   23595   23601      42   23607   23610      41
   23604   23607      42   23604   23610      42   23616   23619      41   23613
   23616      42   23613   23619      42   23625   23628      41   23622   23625
      42   23622   23628      42   23634   23637      41   23631   23634      42
   23631   23637      42   23643   23646      41   23640   23643      42   23640
   23646      42   23652   23655      41   23649   23652      42   23649   23655
      42   23661   23664      41   23658   23661      42   23658   23664      42
   23670   23673      41   23667   23670      42   23667   23673      42   23679
   23682      41   23676   23679      42   23676   23682      42   23688   23691
      41   23685   23688      42   23685   23691      42   23697   23700      41
   23694   23697      42   23694   23700      42   23706   23709      41   23703
   23706      42   23703   23709      42   23715   23718      41   23712   23715
      42   23712   23718      42   23724   23727      41   23721   23724      42
   23721   23727      42   23733   23736      41   23730   23733      42   23730
   23736      42   23742   23745      41   23739   23742      42   23739   23745
      42   23751   23754      41   23748   23751      42   23748   23754      42
   23760   23763      41   23757   23760      42   23757   23763      42   23769
   23772      41   23766   23769      42   23766   23772      42   23778   23781
      41   23775   23778      42   23775   23781      42   23787   23790      41
   23784   23787      42   23784   23790      42   23796   23799      41   23793
   23796      42   23793   23799      42   23805   23808      41   23802   23805
      42   23802   23808      42   23814   23817      41   23811   23814      42
   23811   23817      42   23823   23826      41   23820   23823      42   23820
   23826      42   23832   23835      41   23829   23832      42   23829   23835
      42   23841   23844      41   23838   23841      42   23838   23844      42
   23850   23853      41   23847   23850      42   23847   23853      42   23859
   23862      41   23856   23859      42   23856   23862      42   23868   23871
      41   23865   23868      42   23865   23871      42   23877   23880      41
   23874   23877      42   23874   23880      42   23886   23889      41   23883
   23886      42   23883   23889      42   23895   23898      41   23892   23895
      42   23892   23898      42   23904   23907      41   23901   23904      42
   23901   23907      42   23913   23916      41   23910   23913      42   23910
   23916      42   23922   23925      41   23919   23922      42   23919   23925
      42   23931   23934      41   23928   23931      42   23928   23934      42
   23940   23943      41   23937   23940      42   23937   23943      42   23949
   23952      41   23946   23949      42   23946   23952      42   23958   23961
      41   23955   23958      42   23955   23961      42   23967   23970      41
   23964   23967      42   23964   23970      42   23976   23979      41   23973
   23976      42   23973   23979      42   23985   23988      41   23982   23985
      42   23982   23988      42   23994   23997      41   23991   23994      42
   23991   23997      42   24003   24006      41   24000   24003      42   24000
   24006      42   24012   24015      41   24009   24012      42   24009   24015
      42   24021   24024      41   24018   24021      42   24018   24024      42
   24030   24033      41   24027   24030      42   24027   24033      42   24039
   24042      41   24036   24039      42   24036   24042      42   24048   24051
      41   24045   24048      42   24045   24051      42   24057   24060      41
   24054   24057      42   24054   24060      42   24066   24069      41   24063
   24066      42   24063   24069      42   24075   24078      41   24072   24075
      42   24072   24078      42   24084   24087      41   24081   24084      42
   24081   24087      42   24093   24096      41   24090   24093      42   24090
   24096      42   24102   24105      41   24099   24102      42   24099   24105
      42   24111   24114      41   24108   24111      42   24108   24114      42
   24120   24123      41   24117   24120      42   24117   24123      42   24129
   24132      41   24126   24129      42   24126   24132      42   24138   24141
      41   24135   24138      42   24135   24141      42   24147   24150      41
   24144   24147      42   24144   24150      42   24156   24159      41   24153
   24156      42   24153   24159      42   24165   24168      41   24162   24165
      42   24162   24168      42   24174   24177      41   24171   24174      42
   24171   24177      42   24183   24186      41   24180   24183      42   24180
   24186      42   24192   24195      41   24189   24192      42   24189   24195
      42   24201   24204      41   24198   24201      42   24198   24204      42
   24210   24213      41   24207   24210      42   24207   24213      42   24219
   24222      41   24216   24219      42   24216   24222      42   24228   24231
      41   24225   24228      42   24225   24231      42   24237   24240      41
   24234   24237      42   24234   24240      42   24246   24249      41   24243
   24246      42   24243   24249      42   24255   24258      41   24252   24255
      42   24252   24258      42   24264   24267      41   24261   24264      42
   24261   24267      42   24273   24276      41   24270   24273      42   24270
   24276      42   24282   24285      41   24279   24282      42   24279   24285
      42   24291   24294      41   24288   24291      42   24288   24294      42
   24300   24303      41   24297   24300      42   24297   24303      42   24309
   24312      41   24306   24309      42   24306   24312      42   24318   24321
      41   24315   24318      42   24315   24321      42   24327   24330      41
   24324   24327      42   24324   24330      42   24336   24339      41   24333
   24336      42   24333   24339      42   24345   24348      41   24342   24345
      42   24342   24348      42   24354   24357      41   24351   24354      42
   24351   24357      42   24363   24366      41   24360   24363      42   24360
   24366      42   24372   24375      41   24369   24372      42   24369   24375
      42   24381   24384      41   24378   24381      42   24378   24384      42
   24390   24393      41   24387   24390      42   24387   24393      42   24399
   24402      41   24396   24399      42   24396   24402      42   24408   24411
      41   24405   24408      42   24405   24411      42   24417   24420      41
   24414   24417      42   24414   24420      42   24426   24429      41   24423
   24426      42   24423   24429      42   24435   24438      41   24432   24435
      42   24432   24438      42   24444   24447      41   24441   24444      42
   24441   24447      42   24453   24456      41   24450   24453      42   24450
   24456      42   24462   24465      41   24459   24462      42   24459   24465
      42   24471   24474      41   24468   24471      42   24468   24474      42
   24480   24483      41   24477   24480      42   24477   24483      42   24489
   24492      41   24486   24489      42   24486   24492      42   24498   24501
      41   24495   24498      42   24495   24501      42   24507   24510      41
   24504   24507      42   24504   24510      42   24516   24519      41   24513
   24516      42   24513   24519      42   24525   24528      41   24522   24525
      42   24522   24528      42   24534   24537      41   24531   24534      42
   24531   24537      42   24543   24546      41   24540   24543      42   24540
   24546      42   24552   24555      41   24549   24552      42   24549   24555
      42   24561   24564      41   24558   24561      42   24558   24564      42
   24570   24573      41   24567   24570      42   24567   24573      42   24579
   24582      41   24576   24579      42   24576   24582      42   24588   24591
      41   24585   24588      42   24585   24591      42   24597   24600      41
   24594   24597      42   24594   24600      42   24606   24609      41   24603
   24606      42   24603   24609      42   24615   24618      41   24612   24615
      42   24612   24618      42   24624   24627      41   24621   24624      42
   24621   24627      42   24633   24636      41   24630   24633      42   24630
   24636      42   24642   24645      41   24639   24642      42   24639   24645
      42   24651   24654      41   24648   24651      42   24648   24654      42
   24660   24663      41   24657   24660      42   24657   24663      42   24669
   24672      41   24666   24669      42   24666   24672      42   24678   24681
      41   24675   24678      42   24675   24681      42   24687   24690      41
   24684   24687      42   24684   24690      42   24696   24699      41   24693
   24696      42   24693   24699      42   24705   24708      41   24702   24705
      42   24702   24708      42   24714   24717      41   24711   24714      42
   24711   24717      42   24723   24726      41   24720   24723      42   24720
   24726      42   24732   24735      41   24729   24732      42   24729   24735
      42   24741   24744      41   24738   24741      42   24738   24744      42
   24750   24753      41   24747   24750      42   24747   24753      42   24759
   24762      41   24756   24759      42   24756   24762      42   24768   24771
      41   24765   24768      42   24765   24771      42   24777   24780      41
   24774   24777      42   24774   24780      42   24786   24789      41   24783
   24786      42   24783   24789      42   24795   24798      41   24792   24795
      42   24792   24798      42   24804   24807      41   24801   24804      42
   24801   24807      42   24813   24816      41   24810   24813      42   24810
   24816      42   24822   24825      41   24819   24822      42   24819   24825
      42   24831   24834      41   24828   24831      42   24828   24834      42
   24840   24843      41   24837   24840      42   24837   24843      42   24849
   24852      41   24846   24849      42   24846   24852      42   24858   24861
      41   24855   24858      42   24855   24861      42   24867   24870      41
   24864   24867      42   24864   24870      42   24876   24879      41   24873
   24876      42   24873   24879      42   24885   24888      41   24882   24885
      42   24882   24888      42   24894   24897      41   24891   24894      42
   24891   24897      42   24903   24906      41   24900   24903      42   24900
   24906      42   24912   24915      41   24909   24912      42   24909   24915
      42   24921   24924      41   24918   24921      42   24918   24924      42
   24930   24933      41   24927   24930      42   24927   24933      42   24939
   24942      41   24936   24939      42   24936   24942      42   24948   24951
      41   24945   24948      42   24945   24951      42   24957   24960      41
   24954   24957      42   24954   24960      42   24966   24969      41   24963
   24966      42   24963   24969      42   24975   24978      41   24972   24975
      42   24972   24978      42   24984   24987      41   24981   24984      42
   24981   24987      42   24993   24996      41   24990   24993      42   24990
   24996      42   25002   25005      41   24999   25002      42   24999   25005
      42   25011   25014      41   25008   25011      42   25008   25014      42
   25020   25023      41   25017   25020      42   25017   25023      42   25029
   25032      41   25026   25029      42   25026   25032      42   25038   25041
      41   25035   25038      42   25035   25041      42
%FLAG BONDS_WITHOUT_HYDROGEN                                                    
%FORMAT(10I8)                                                                   
      21      24       1      21      27       2      12      21       4       0
      12       6      84      87       1      84      90       2      72      78
       8      63      66      10      63      72      11      57      63      11
      51      57       8      48      51       8      48      78       8      39
      48      13      33      39      15      33      84       4      27      33
      17     120     123       1     120     126       2     111     114      18
     111     117      18     102     111      20      96     102      21      96
     120       4      90      96      17     162     165       1     162     168
       2     156     162       4     147     156      15     138     147      22
     129     138      22     126     129      24     126     156      17     207
     210       1     207     213       2     198     201      18     198     204
      18     189     198      20     180     189      25     174     180      21
     174     207       4     168     174      17     249     252       1     249
     255       2     225     231      27     225     243      28     219     225
      29     219     249       4     213     219      17     270     273       1
     270     276       2     261     270       4     255     261      17     312
     315       1     312     318       2     288     294      27     288     306
      28     282     288      29     282     312       4     276     282      17
     384     387       1     384     390       2     375     381      30     369
     375       8     363     369       8     357     363       8     354     357
      31     354     381      32     348     354      34     342     348      36
     339     342      37     339     381      38     330     339      39     324
     330      15     324     384       4     318     324      17     405     408
      40     405     411      40     396     405       4     390     396      17
%FLAG ANGLES_INC_HYDROGEN                                                       
%FORMAT(10I8)                                                                   
      21      27      30       2      18      12      21       4      15      12
      18       5      15      12      21       4       9       0      12       8
       6       0       9       9       6       0      12       8       3       0
       6       9       3       0       9       9       3       0      12       8
       0      12      15      10       0      12      18      10      84      90
      93       2      75      72      78      12      72      78      81      12
      63      66      69      14      63      72      75      15      60      57
      63      15      54      51      57      12      51      57      60      12
      48      51      54      12      48      78      81      12      45      39
      48      19      42      39      45      20      42      39      48      19
      36      33      39      23      36      33      84      24      33      39
      42      25      33      39      45      25      30      27      33      27
      27      33      36      28     108     102     111      33     105     102
     108      34     105     102     111      33      99      96     102      37
      99      96     120      24      96     102     105      38      96     102
     108      38      93      90      96      27      90      96      99      28
     162     168     171       2     159     156     162      24     153     147
     156      25     150     147     153      20     150     147     156      25
     147     156     159      23     144     138     147      41     141     138
     144      20     141     138     147      41     138     147     150      41
     138     147     153      41     135     129     138      43     132     129
     135      44     132     129     138      43     129     138     141      41
     129     138     144      41     126     129     132      47     126     129
     135      47     126     156     159      28     207     213     216       2
     195     189     198      33     192     189     195      34     192     189
     198      33     186     180     189      49     183     180     186      34
     183     180     189      49     180     189     192      49     180     189
     195      49     177     174     180      37     177     174     207      24
     174     180     183      38     174     180     186      38     171     168
     174      27     168     174     177      28     249     255     258       2
     237     231     240      20     234     231     237      20     234     231
     240      20     228     225     231      53     228     225     243      54
     225     231     234      56     225     231     237      56     225     231
     240      56     225     243     246      57     222     219     225      58
     222     219     249      24     219     225     228      59     216     213
     219      27     213     219     222      28     270     276     279       2
     267     261     270      24     264     261     267      63     264     261
     270      24     258     255     261      27     255     261     264      28
     255     261     267      28     312     318     321       2     300     294
     303      20     297     294     300      20     297     294     303      20
     291     288     294      53     291     288     306      54     288     294
     297      56     288     294     300      56     288     294     303      56
     288     306     309      57     285     282     288      58     285     282
     312      24     282     288     291      59     279     276     282      27
     276     282     285      28     384     390     393       2     378     375
     381      64     372     369     375      12     369     375     378      12
     366     363     369      12     363     369     372      12     360     357
     363      12     357     363     366      12     354     357     360      67
     351     348     354      70     345     342     348      73     342     348
     351      75     339     342     345      77     336     330     339      81
     333     330     336      20     333     330     339      81     327     324
     330      23     327     324     384      24     324     330     333      25
     324     330     336      25     321     318     324      27     318     324
     327      28     402     396     405      24     399     396     402      63
     399     396     405      24     393     390     396      27     390     396
     399      28     390     396     402      28     423     420     426      87
     432     429     435      87     441     438     444      87     450     447
     453      87     459     456     462      87     468     465     471      87
     477     474     480      87     486     483     489      87     495     492
     498      87     504     501     507      87     513     510     516      87
     522     519     525      87     531     528     534      87     540     537
     543      87     549     546     552      87     558     555     561      87
     567     564     570      87     576     573     579      87     585     582
     588      87     594     591     597      87     603     600     606      87
     612     609     615      87     621     618     624      87     630     627
     633      87     639     636     642      87     648     645     651      87
     657     654     660      87     666     663     669      87     675     672
     678      87     684     681     687      87     693     690     696      87
     702     699     705      87     711     708     714      87     720     717
     723      87     729     726     732      87     738     735     741      87
     747     744     750      87     756     753     759      87     765     762
     768      87     774     771     777      87     783     780     786      87
     792     789     795      87     801     798     804      87     810     807
     813      87     819     816     822      87     828     825     831      87
     837     834     840      87     846     843     849      87     855     852
     858      87     864     861     867      87     873     870     876      87
     882     879     885      87     891     888     894      87     900     897
     903      87     909     906     912      87     918     915     921      87
     927     924     930      87     936     933     939      87     945     942
     948      87     954     951     957      87     963     960     966      87
     972     969     975      87     981     978     984      87     990     987
     993      87     999     996    1002      87    1008    1005    1011      87
    1017    1014    1020      87    1026    1023    1029      87    1035    1032
    1038      87    1044    1041    1047      87    1053    1050    1056      87
    1062    1059    1065      87    1071    1068    1074      87    1080    1077
    1083      87    1089    1086    1092      87    1098    1095    1101      87
    1107    1104    1110      87    1116    1113    1119      87    1125    1122
    1128      87    1134    1131    1137      87    1143    1140    1146      87
    1152    1149    1155      87    1161    1158    1164      87    1170    1167
    1173      87    1179    1176    1182      87    1188    1185    1191      87
    1197    1194    1200      87    1206    1203    1209      87    1215    1212
    1218      87    1224    1221    1227      87    1233    1230    1236      87
    1242    1239    1245      87    1251    1248    1254      87    1260    1257
    1263      87    1269    1266    1272      87    1278    1275    1281      87
    1287    1284    1290      87    1296    1293    1299      87    1305    1302
    1308      87    1314    1311    1317      87    1323    1320    1326      87
    1332    1329    1335      87    1341    1338    1344      87    1350    1347
    1353      87    1359    1356    1362      87    1368    1365    1371      87
    1377    1374    1380      87    1386    1383    1389      87    1395    1392
    1398      87    1404    1401    1407      87    1413    1410    1416      87
    1422    1419    1425      87    1431    1428    1434      87    1440    1437
    1443      87    1449    1446    1452      87    1458    1455    1461      87
    1467    1464    1470      87    1476    1473    1479      87    1485    1482
    1488      87    1494    1491    1497      87    1503    1500    1506      87
    1512    1509    1515      87    1521    1518    1524      87    1530    1527
    1533      87    1539    1536    1542      87    1548    1545    1551      87
    1557    1554    1560      87    1566    1563    1569      87    1575    1572
    1578      87    1584    1581    1587      87    1593    1590    1596      87
    1602    1599    1605      87    1611    1608    1614      87    1620    1617
    1623      87    1629    1626    1632      87    1638    1635    1641      87
    1647    1644    1650      87    1656    1653    1659      87    1665    1662
    1668      87    1674    1671    1677      87    1683    1680    1686      87
    1692    1689    1695      87    1701    1698    1704      87    1710    1707
    1713      87    1719    1716    1722      87    1728    1725    1731      87
    1737    1734    1740      87    1746    1743    1749      87    1755    1752
    1758      87    1764    1761    1767      87    1773    1770    1776      87
    1782    1779    1785      87    1791    1788    1794      87    1800    1797
    1803      87    1809    1806    1812      87    1818    1815    1821      87
    1827    1824    1830      87    1836    1833    1839      87    1845    1842
    1848      87    1854    1851    1857      87    1863    1860    1866      87
    1872    1869    1875      87    1881    1878    1884      87    1890    1887
    1893      87    1899    1896    1902      87    1908    1905    1911      87
    1917    1914    1920      87    1926    1923    1929      87    1935    1932
    1938      87    1944    1941    1947      87    1953    1950    1956      87
    1962    1959    1965      87    1971    1968    1974      87    1980    1977
    1983      87    1989    1986    1992      87    1998    1995    2001      87
    2007    2004    2010      87    2016    2013    2019      87    2025    2022
    2028      87    2034    2031    2037      87    2043    2040    2046      87
    2052    2049    2055      87    2061    2058    2064      87    2070    2067
    2073      87    2079    2076    2082      87    2088    2085    2091      87
    2097    2094    2100      87    2106    2103    2109      87    2115    2112
    2118      87    2124    2121    2127      87    2133    2130    2136      87
    2142    2139    2145      87    2151    2148    2154      87    2160    2157
    2163      87    2169    2166    2172      87    2178    2175    2181      87
    2187    2184    2190      87    2196    2193    2199      87    2205    2202
    2208      87    2214    2211    2217      87    2223    2220    2226      87
    2232    2229    2235      87    2241    2238    2244      87    2250    2247
    2253      87    2259    2256    2262      87    2268    2265    2271      87
    2277    2274    2280      87    2286    2283    2289      87    2295    2292
    2298      87    2304    2301    2307      87    2313    2310    2316      87
    2322    2319    2325      87    2331    2328    2334      87    2340    2337
    2343      87    2349    2346    2352      87    2358    2355    2361      87
    2367    2364    2370      87    2376    2373    2379      87    2385    2382
    2388      87    2394    2391    2397      87    2403    2400    2406      87
    2412    2409    2415      87    2421    2418    2424      87    2430    2427
    2433      87    2439    2436    2442      87    2448    2445    2451      87
    2457    2454    2460      87    2466    2463    2469      87    2475    2472
    2478      87    2484    2481    2487      87    2493    2490    2496      87
    2502    2499    2505      87    2511    2508    2514      87    2520    2517
    2523      87    2529    2526    2532      87    2538    2535    2541      87
    2547    2544    2550      87    2556    2553    2559      87    2565    2562
    2568      87    2574    2571    2577      87    2583    2580    2586      87
    2592    2589    2595      87    2601    2598    2604      87    2610    2607
    2613      87    2619    2616    2622      87    2628    2625    2631      87
    2637    2634    2640      87    2646    2643    2649      87    2655    2652
    2658      87    2664    2661    2667      87    2673    2670    2676      87
    2682    2679    2685      87    2691    2688    2694      87    2700    2697
    2703      87    2709    2706    2712      87    2718    2715    2721      87
    2727    2724    2730      87    2736    2733    2739      87    2745    2742
    2748      87    2754    2751    2757      87    2763    2760    2766      87
    2772    2769    2775      87    2781    2778    2784      87    2790    2787
    2793      87    2799    2796    2802      87    2808    2805    2811      87
    2817    2814    2820      87    2826    2823    2829      87    2835    2832
    2838      87    2844    2841    2847      87    2853    2850    2856      87
    2862    2859    2865      87    2871    2868    2874      87    2880    2877
    2883      87    2889    2886    2892      87    2898    2895    2901      87
    2907    2904    2910      87    2916    2913    2919      87    2925    2922
    2928      87    2934    2931    2937      87    2943    2940    2946      87
    2952    2949    2955      87    2961    2958    2964      87    2970    2967
    2973      87    2979    2976    2982      87    2988    2985    2991      87
    2997    2994    3000      87    3006    3003    3009      87    3015    3012
    3018      87    3024    3021    3027      87    3033    3030    3036      87
    3042    3039    3045      87    3051    3048    3054      87    3060    3057
    3063      87    3069    3066    3072      87    3078    3075    3081      87
    3087    3084    3090      87    3096    3093    3099      87    3105    3102
    3108      87    3114    3111    3117      87    3123    3120    3126      87
    3132    3129    3135      87    3141    3138    3144      87    3150    3147
    3153      87    3159    3156    3162      87    3168    3165    3171      87
    3177    3174    3180      87    3186    3183    3189      87    3195    3192
    3198      87    3204    3201    3207      87    3213    3210    3216      87
    3222    3219    3225      87    3231    3228    3234      87    3240    3237
    3243      87    3249    3246    3252      87    3258    3255    3261      87
    3267    3264    3270      87    3276    3273    3279      87    3285    3282
    3288      87    3294    3291    3297      87    3303    3300    3306      87
    3312    3309    3315      87    3321    3318    3324      87    3330    3327
    3333      87    3339    3336    3342      87    3348    3345    3351      87
    3357    3354    3360      87    3366    3363    3369      87    3375    3372
    3378      87    3384    3381    3387      87    3393    3390    3396      87
    3402    3399    3405      87    3411    3408    3414      87    3420    3417
    3423      87    3429    3426    3432      87    3438    3435    3441      87
    3447    3444    3450      87    3456    3453    3459      87    3465    3462
    3468      87    3474    3471    3477      87    3483    3480    3486      87
    3492    3489    3495      87    3501    3498    3504      87    3510    3507
    3513      87    3519    3516    3522      87    3528    3525    3531      87
    3537    3534    3540      87    3546    3543    3549      87    3555    3552
    3558      87    3564    3561    3567      87    3573    3570    3576      87
    3582    3579    3585      87    3591    3588    3594      87    3600    3597
    3603      87    3609    3606    3612      87    3618    3615    3621      87
    3627    3624    3630      87    3636    3633    3639      87    3645    3642
    3648      87    3654    3651    3657      87    3663    3660    3666      87
    3672    3669    3675      87    3681    3678    3684      87    3690    3687
    3693      87    3699    3696    3702      87    3708    3705    3711      87
    3717    3714    3720      87    3726    3723    3729      87    3735    3732
    3738      87    3744    3741    3747      87    3753    3750    3756      87
    3762    3759    3765      87    3771    3768    3774      87    3780    3777
    3783      87    3789    3786    3792      87    3798    3795    3801      87
    3807    3804    3810      87    3816    3813    3819      87    3825    3822
    3828      87    3834    3831    3837      87    3843    3840    3846      87
    3852    3849    3855      87    3861    3858    3864      87    3870    3867
    3873      87    3879    3876    3882      87    3888    3885    3891      87
    3897    3894    3900      87    3906    3903    3909      87    3915    3912
    3918      87    3924    3921    3927      87    3933    3930    3936      87
    3942    3939    3945      87    3951    3948    3954      87    3960    3957
    3963      87    3969    3966    3972      87    3978    3975    3981      87
    3987    3984    3990      87    3996    3993    3999      87    4005    4002
    4008      87    4014    4011    4017      87    4023    4020    4026      87
    4032    4029    4035      87    4041    4038    4044      87    4050    4047
    4053      87    4059    4056    4062      87    4068    4065    4071      87
    4077    4074    4080      87    4086    4083    4089      87    4095    4092
    4098      87    4104    4101    4107      87    4113    4110    4116      87
    4122    4119    4125      87    4131    4128    4134      87    4140    4137
    4143      87    4149    4146    4152      87    4158    4155    4161      87
    4167    4164    4170      87    4176    4173    4179      87    4185    4182
    4188      87    4194    4191    4197      87    4203    4200    4206      87
    4212    4209    4215      87    4221    4218    4224      87    4230    4227
    4233      87    4239    4236    4242      87    4248    4245    4251      87
    4257    4254    4260      87    4266    4263    4269      87    4275    4272
    4278      87    4284    4281    4287      87    4293    4290    4296      87
    4302    4299    4305      87    4311    4308    4314      87    4320    4317
    4323      87    4329    4326    4332      87    4338    4335    4341      87
    4347    4344    4350      87    4356    4353    4359      87    4365    4362
    4368      87    4374    4371    4377      87    4383    4380    4386      87
    4392    4389    4395      87    4401    4398    4404      87    4410    4407
    4413      87    4419    4416    4422      87    4428    4425    4431      87
    4437    4434    4440      87    4446    4443    4449      87    4455    4452
    4458      87    4464    4461    4467      87    4473    4470    4476      87
    4482    4479    4485      87    4491    4488    4494      87    4500    4497
    4503      87    4509    4506    4512      87    4518    4515    4521      87
    4527    4524    4530      87    4536    4533    4539      87    4545    4542
    4548      87    4554    4551    4557      87    4563    4560    4566      87
    4572    4569    4575      87    4581    4578    4584      87    4590    4587
    4593      87    4599    4596    4602      87    4608    4605    4611      87
    4617    4614    4620      87    4626    4623    4629      87    4635    4632
    4638      87    4644    4641    4647      87    4653    4650    4656      87
    4662    4659    4665      87    4671    4668    4674      87    4680    4677
    4683      87    4689    4686    4692      87    4698    4695    4701      87
    4707    4704    4710      87    4716    4713    4719      87    4725    4722
    4728      87    4734    4731    4737      87    4743    4740    4746      87
    4752    4749    4755      87    4761    4758    4764      87    4770    4767
    4773      87    4779    4776    4782      87    4788    4785    4791      87
    4797    4794    4800      87    4806    4803    4809      87    4815    4812
    4818      87    4824    4821    4827      87    4833    4830    4836      87
    4842    4839    4845      87    4851    4848    4854      87    4860    4857
    4863      87    4869    4866    4872      87    4878    4875    4881      87
    4887    4884    4890      87    4896    4893    4899      87    4905    4902
    4908      87    4914    4911    4917      87    4923    4920    4926      87
    4932    4929    4935      87    4941    4938    4944      87    4950    4947
    4953      87    4959    4956    4962      87    4968    4965    4971      87
    4977    4974    4980      87    4986    4983    4989      87    4995    4992
    4998      87    5004    5001    5007      87    5013    5010    5016      87
    5022    5019    5025      87    5031    5028    5034      87    5040    5037
    5043      87    5049    5046    5052      87    5058    5055    5061      87
    5067    5064    5070      87    5076    5073    5079      87    5085    5082
    5088      87    5094    5091    5097      87    5103    5100    5106      87
    5112    5109    5115      87    5121    5118    5124      87    5130    5127
    5133      87    5139    5136    5142      87    5148    5145    5151      87
    5157    5154    5160      87    5166    5163    5169      87    5175    5172
    5178      87    5184    5181    5187      87    5193    5190    5196      87
    5202    5199    5205      87    5211    5208    5214      87    5220    5217
    5223      87    5229    5226    5232      87    5238    5235    5241      87
    5247    5244    5250      87    5256    5253    5259      87    5265    5262
    5268      87    5274    5271    5277      87    5283    5280    5286      87
    5292    5289    5295      87    5301    5298    5304      87    5310    5307
    5313      87    5319    5316    5322      87    5328    5325    5331      87
    5337    5334    5340      87    5346    5343    5349      87    5355    5352
    5358      87    5364    5361    5367      87    5373    5370    5376      87
    5382    5379    5385      87    5391    5388    5394      87    5400    5397
    5403      87    5409    5406    5412      87    5418    5415    5421      87
    5427    5424    5430      87    5436    5433    5439      87    5445    5442
    5448      87    5454    5451    5457      87    5463    5460    5466      87
    5472    5469    5475      87    5481    5478    5484      87    5490    5487
    5493      87    5499    5496    5502      87    5508    5505    5511      87
    5517    5514    5520      87    5526    5523    5529      87    5535    5532
    5538      87    5544    5541    5547      87    5553    5550    5556      87
    5562    5559    5565      87    5571    5568    5574      87    5580    5577
    5583      87    5589    5586    5592      87    5598    5595    5601      87
    5607    5604    5610      87    5616    5613    5619      87    5625    5622
    5628      87    5634    5631    5637      87    5643    5640    5646      87
    5652    5649    5655      87    5661    5658    5664      87    5670    5667
    5673      87    5679    5676    5682      87    5688    5685    5691      87
    5697    5694    5700      87    5706    5703    5709      87    5715    5712
    5718      87    5724    5721    5727      87    5733    5730    5736      87
    5742    5739    5745      87    5751    5748    5754      87    5760    5757
    5763      87    5769    5766    5772      87    5778    5775    5781      87
    5787    5784    5790      87    5796    5793    5799      87    5805    5802
    5808      87    5814    5811    5817      87    5823    5820    5826      87
    5832    5829    5835      87    5841    5838    5844      87    5850    5847
    5853      87    5859    5856    5862      87    5868    5865    5871      87
    5877    5874    5880      87    5886    5883    5889      87    5895    5892
    5898      87    5904    5901    5907      87    5913    5910    5916      87
    5922    5919    5925      87    5931    5928    5934      87    5940    5937
    5943      87    5949    5946    5952      87    5958    5955    5961      87
    5967    5964    5970      87    5976    5973    5979      87    5985    5982
    5988      87    5994    5991    5997      87    6003    6000    6006      87
    6012    6009    6015      87    6021    6018    6024      87    6030    6027
    6033      87    6039    6036    6042      87    6048    6045    6051      87
    6057    6054    6060      87    6066    6063    6069      87    6075    6072
    6078      87    6084    6081    6087      87    6093    6090    6096      87
    6102    6099    6105      87    6111    6108    6114      87    6120    6117
    6123      87    6129    6126    6132      87    6138    6135    6141      87
    6147    6144    6150      87    6156    6153    6159      87    6165    6162
    6168      87    6174    6171    6177      87    6183    6180    6186      87
    6192    6189    6195      87    6201    6198    6204      87    6210    6207
    6213      87    6219    6216    6222      87    6228    6225    6231      87
    6237    6234    6240      87    6246    6243    6249      87    6255    6252
    6258      87    6264    6261    6267      87    6273    6270    6276      87
    6282    6279    6285      87    6291    6288    6294      87    6300    6297
    6303      87    6309    6306    6312      87    6318    6315    6321      87
    6327    6324    6330      87    6336    6333    6339      87    6345    6342
    6348      87    6354    6351    6357      87    6363    6360    6366      87
    6372    6369    6375      87    6381    6378    6384      87    6390    6387
    6393      87    6399    6396    6402      87    6408    6405    6411      87
    6417    6414    6420      87    6426    6423    6429      87    6435    6432
    6438      87    6444    6441    6447      87    6453    6450    6456      87
    6462    6459    6465      87    6471    6468    6474      87    6480    6477
    6483      87    6489    6486    6492      87    6498    6495    6501      87
    6507    6504    6510      87    6516    6513    6519      87    6525    6522
    6528      87    6534    6531    6537      87    6543    6540    6546      87
    6552    6549    6555      87    6561    6558    6564      87    6570    6567
    6573      87    6579    6576    6582      87    6588    6585    6591      87
    6597    6594    6600      87    6606    6603    6609      87    6615    6612
    6618      87    6624    6621    6627      87    6633    6630    6636      87
    6642    6639    6645      87    6651    6648    6654      87    6660    6657
    6663      87    6669    6666    6672      87    6678    6675    6681      87
    6687    6684    6690      87    6696    6693    6699      87    6705    6702
    6708      87    6714    6711    6717      87    6723    6720    6726      87
    6732    6729    6735      87    6741    6738    6744      87    6750    6747
    6753      87    6759    6756    6762      87    6768    6765    6771      87
    6777    6774    6780      87    6786    6783    6789      87    6795    6792
    6798      87    6804    6801    6807      87    6813    6810    6816      87
    6822    6819    6825      87    6831    6828    6834      87    6840    6837
    6843      87    6849    6846    6852      87    6858    6855    6861      87
    6867    6864    6870      87    6876    6873    6879      87    6885    6882
    6888      87    6894    6891    6897      87    6903    6900    6906      87
    6912    6909    6915      87    6921    6918    6924      87    6930    6927
    6933      87    6939    6936    6942      87    6948    6945    6951      87
    6957    6954    6960      87    6966    6963    6969      87    6975    6972
    6978      87    6984    6981    6987      87    6993    6990    6996      87
    7002    6999    7005      87    7011    7008    7014      87    7020    7017
    7023      87    7029    7026    7032      87    7038    7035    7041      87
    7047    7044    7050      87    7056    7053    7059      87    7065    7062
    7068      87    7074    7071    7077      87    7083    7080    7086      87
    7092    7089    7095      87    7101    7098    7104      87    7110    7107
    7113      87    7119    7116    7122      87    7128    7125    7131      87
    7137    7134    7140      87    7146    7143    7149      87    7155    7152
    7158      87    7164    7161    7167      87    7173    7170    7176      87
    7182    7179    7185      87    7191    7188    7194      87    7200    7197
    7203      87    7209    7206    7212      87    7218    7215    7221      87
    7227    7224    7230      87    7236    7233    7239      87    7245    7242
    7248      87    7254    7251    7257      87    7263    7260    7266      87
    7272    7269    7275      87    7281    7278    7284      87    7290    7287
    7293      87    7299    7296    7302      87    7308    7305    7311      87
    7317    7314    7320      87    7326    7323    7329      87    7335    7332
    7338      87    7344    7341    7347      87    7353    7350    7356      87
    7362    7359    7365      87    7371    7368    7374      87    7380    7377
    7383      87    7389    7386    7392      87    7398    7395    7401      87
    7407    7404    7410      87    7416    7413    7419      87    7425    7422
    7428      87    7434    7431    7437      87    7443    7440    7446      87
    7452    7449    7455      87    7461    7458    7464      87    7470    7467
    7473      87    7479    7476    7482      87    7488    7485    7491      87
    7497    7494    7500      87    7506    7503    7509      87    7515    7512
    7518      87    7524    7521    7527      87    7533    7530    7536      87
    7542    7539    7545      87    7551    7548    7554      87    7560    7557
    7563      87    7569    7566    7572      87    7578    7575    7581      87
    7587    7584    7590      87    7596    7593    7599      87    7605    7602
    7608      87    7614    7611    7617      87    7623    7620    7626      87
    7632    7629    7635      87    7641    7638    7644      87    7650    7647
    7653      87    7659    7656    7662      87    7668    7665    7671      87
    7677    7674    7680      87    7686    7683    7689      87    7695    7692
    7698      87    7704    7701    7707      87    7713    7710    7716      87
    7722    7719    7725      87    7731    7728    7734      87    7740    7737
    7743      87    7749    7746    7752      87    7758    7755    7761      87
    7767    7764    7770      87    7776    7773    7779      87    7785    7782
    7788      87    7794    7791    7797      87    7803    7800    7806      87
    7812    7809    7815      87    7821    7818    7824      87    7830    7827
    7833      87    7839    7836    7842      87    7848    7845    7851      87
    7857    7854    7860      87    7866    7863    7869      87    7875    7872
    7878      87    7884    7881    7887      87    7893    7890    7896      87
    7902    7899    7905      87    7911    7908    7914      87    7920    7917
    7923      87    7929    7926    7932      87    7938    7935    7941      87
    7947    7944    7950      87    7956    7953    7959      87    7965    7962
    7968      87    7974    7971    7977      87    7983    7980    7986      87
    7992    7989    7995      87    8001    7998    8004      87    8010    8007
    8013      87    8019    8016    8022      87    8028    8025    8031      87
    8037    8034    8040      87    8046    8043    8049      87    8055    8052
    8058      87    8064    8061    8067      87    8073    8070    8076      87
    8082    8079    8085      87    8091    8088    8094      87    8100    8097
    8103      87    8109    8106    8112      87    8118    8115    8121      87
    8127    8124    8130      87    8136    8133    8139      87    8145    8142
    8148      87    8154    8151    8157      87    8163    8160    8166      87
    8172    8169    8175      87    8181    8178    8184      87    8190    8187
    8193      87    8199    8196    8202      87    8208    8205    8211      87
    8217    8214    8220      87    8226    8223    8229      87    8235    8232
    8238      87    8244    8241    8247      87    8253    8250    8256      87
    8262    8259    8265      87    8271    8268    8274      87    8280    8277
    8283      87    8289    8286    8292      87    8298    8295    8301      87
    8307    8304    8310      87    8316    8313    8319      87    8325    8322
    8328      87    8334    8331    8337      87    8343    8340    8346      87
    8352    8349    8355      87    8361    8358    8364      87    8370    8367
    8373      87    8379    8376    8382      87    8388    8385    8391      87
    8397    8394    8400      87    8406    8403    8409      87    8415    8412
    8418      87    8424    8421    8427      87    8433    8430    8436      87
    8442    8439    8445      87    8451    8448    8454      87    8460    8457
    8463      87    8469    8466    8472      87    8478    8475    8481      87
    8487    8484    8490      87    8496    8493    8499      87    8505    8502
    8508      87    8514    8511    8517      87    8523    8520    8526      87
    8532    8529    8535      87    8541    8538    8544      87    8550    8547
    8553      87    8559    8556    8562      87    8568    8565    8571      87
    8577    8574    8580      87    8586    8583    8589      87    8595    8592
    8598      87    8604    8601    8607      87    8613    8610    8616      87
    8622    8619    8625      87    8631    8628    8634      87    8640    8637
    8643      87    8649    8646    8652      87    8658    8655    8661      87
    8667    8664    8670      87    8676    8673    8679      87    8685    8682
    8688      87    8694    8691    8697      87    8703    8700    8706      87
    8712    8709    8715      87    8721    8718    8724      87    8730    8727
    8733      87    8739    8736    8742      87    8748    8745    8751      87
    8757    8754    8760      87    8766    8763    8769      87    8775    8772
    8778      87    8784    8781    8787      87    8793    8790    8796      87
    8802    8799    8805      87    8811    8808    8814      87    8820    8817
    8823      87    8829    8826    8832      87    8838    8835    8841      87
    8847    8844    8850      87    8856    8853    8859      87    8865    8862
    8868      87    8874    8871    8877      87    8883    8880    8886      87
    8892    8889    8895      87    8901    8898    8904      87    8910    8907
    8913      87    8919    8916    8922      87    8928    8925    8931      87
    8937    8934    8940      87    8946    8943    8949      87    8955    8952
    8958      87    8964    8961    8967      87    8973    8970    8976      87
    8982    8979    8985      87    8991    8988    8994      87    9000    8997
    9003      87    9009    9006    9012      87    9018    9015    9021      87
    9027    9024    9030      87    9036    9033    9039      87    9045    9042
    9048      87    9054    9051    9057      87    9063    9060    9066      87
    9072    9069    9075      87    9081    9078    9084      87    9090    9087
    9093      87    9099    9096    9102      87    9108    9105    9111      87
    9117    9114    9120      87    9126    9123    9129      87    9135    9132
    9138      87    9144    9141    9147      87    9153    9150    9156      87
    9162    9159    9165      87    9171    9168    9174      87    9180    9177
    9183      87    9189    9186    9192      87    9198    9195    9201      87
    9207    9204    9210      87    9216    9213    9219      87    9225    9222
    9228      87    9234    9231    9237      87    9243    9240    9246      87
    9252    9249    9255      87    9261    9258    9264      87    9270    9267
    9273      87    9279    9276    9282      87    9288    9285    9291      87
    9297    9294    9300      87    9306    9303    9309      87    9315    9312
    9318      87    9324    9321    9327      87    9333    9330    9336      87
    9342    9339    9345      87    9351    9348    9354      87    9360    9357
    9363      87    9369    9366    9372      87    9378    9375    9381      87
    9387    9384    9390      87    9396    9393    9399      87    9405    9402
    9408      87    9414    9411    9417      87    9423    9420    9426      87
    9432    9429    9435      87    9441    9438    9444      87    9450    9447
    9453      87    9459    9456    9462      87    9468    9465    9471      87
    9477    9474    9480      87    9486    9483    9489      87    9495    9492
    9498      87    9504    9501    9507      87    9513    9510    9516      87
    9522    9519    9525      87    9531    9528    9534      87    9540    9537
    9543      87    9549    9546    9552      87    9558    9555    9561      87
    9567    9564    9570      87    9576    9573    9579      87    9585    9582
    9588      87    9594    9591    9597      87    9603    9600    9606      87
    9612    9609    9615      87    9621    9618    9624      87    9630    9627
    9633      87    9639    9636    9642      87    9648    9645    9651      87
    9657    9654    9660      87    9666    9663    9669      87    9675    9672
    9678      87    9684    9681    9687      87    9693    9690    9696      87
    9702    9699    9705      87    9711    9708    9714      87    9720    9717
    9723      87    9729    9726    9732      87    9738    9735    9741      87
    9747    9744    9750      87    9756    9753    9759      87    9765    9762
    9768      87    9774    9771    9777      87    9783    9780    9786      87
    9792    9789    9795      87    9801    9798    9804      87    9810    9807
    9813      87    9819    9816    9822      87    9828    9825    9831      87
    9837    9834    9840      87    9846    9843    9849      87    9855    9852
    9858      87    9864    9861    9867      87    9873    9870    9876      87
    9882    9879    9885      87    9891    9888    9894      87    9900    9897
    9903      87    9909    9906    9912      87    9918    9915    9921      87
    9927    9924    9930      87    9936    9933    9939      87    9945    9942
    9948      87    9954    9951    9957      87    9963    9960    9966      87
    9972    9969    9975      87    9981    9978    9984      87    9990    9987
    9993      87    9999    9996   10002      87   10008   10005   10011      87
   10017   10014   10020      87   10026   10023   10029      87   10035   10032
   10038      87   10044   10041   10047      87   10053   10050   10056      87
   10062   10059   10065      87   10071   10068   10074      87   10080   10077
   10083      87   10089   10086   10092      87   10098   10095   10101      87
   10107   10104   10110      87   10116   10113   10119      87   10125   10122
   10128      87   10134   10131   10137      87   10143   10140   10146      87
   10152   10149   10155      87   10161   10158   10164      87   10170   10167
   10173      87   10179   10176   10182      87   10188   10185   10191      87
   10197   10194   10200      87   10206   10203   10209      87   10215   10212
   10218      87   10224   10221   10227      87   10233   10230   10236      87
   10242   10239   10245      87   10251   10248   10254      87   10260   10257
   10263      87   10269   10266   10272      87   10278   10275   10281      87
   10287   10284   10290      87   10296   10293   10299      87   10305   10302
   10308      87   10314   10311   10317      87   10323   10320   10326      87
   10332   10329   10335      87   10341   10338   10344      87   10350   10347
   10353      87   10359   10356   10362      87   10368   10365   10371      87
   10377   10374   10380      87   10386   10383   10389      87   10395   10392
   10398      87   10404   10401   10407      87   10413   10410   10416      87
   10422   10419   10425      87   10431   10428   10434      87   10440   10437
   10443      87   10449   10446   10452      87   10458   10455   10461      87
   10467   10464   10470      87   10476   10473   10479      87   10485   10482
   10488      87   10494   10491   10497      87   10503   10500   10506      87
   10512   10509   10515      87   10521   10518   10524      87   10530   10527
   10533      87   10539   10536   10542      87   10548   10545   10551      87
   10557   10554   10560      87   10566   10563   10569      87   10575   10572
   10578      87   10584   10581   10587      87   10593   10590   10596      87
   10602   10599   10605      87   10611   10608   10614      87   10620   10617
   10623      87   10629   10626   10632      87   10638   10635   10641      87
   10647   10644   10650      87   10656   10653   10659      87   10665   10662
   10668      87   10674   10671   10677      87   10683   10680   10686      87
   10692   10689   10695      87   10701   10698   10704      87   10710   10707
   10713      87   10719   10716   10722      87   10728   10725   10731      87
   10737   10734   10740      87   10746   10743   10749      87   10755   10752
   10758      87   10764   10761   10767      87   10773   10770   10776      87
   10782   10779   10785      87   10791   10788   10794      87   10800   10797
   10803      87   10809   10806   10812      87   10818   10815   10821      87
   10827   10824   10830      87   10836   10833   10839      87   10845   10842
   10848      87   10854   10851   10857      87   10863   10860   10866      87
   10872   10869   10875      87   10881   10878   10884      87   10890   10887
   10893      87   10899   10896   10902      87   10908   10905   10911      87
   10917   10914   10920      87   10926   10923   10929      87   10935   10932
   10938      87   10944   10941   10947      87   10953   10950   10956      87
   10962   10959   10965      87   10971   10968   10974      87   10980   10977
   10983      87   10989   10986   10992      87   10998   10995   11001      87
   11007   11004   11010      87   11016   11013   11019      87   11025   11022
   11028      87   11034   11031   11037      87   11043   11040   11046      87
   11052   11049   11055      87   11061   11058   11064      87   11070   11067
   11073      87   11079   11076   11082      87   11088   11085   11091      87
   11097   11094   11100      87   11106   11103   11109      87   11115   11112
   11118      87   11124   11121   11127      87   11133   11130   11136      87
   11142   11139   11145      87   11151   11148   11154      87   11160   11157
   11163      87   11169   11166   11172      87   11178   11175   11181      87
   11187   11184   11190      87   11196   11193   11199      87   11205   11202
   11208      87   11214   11211   11217      87   11223   11220   11226      87
   11232   11229   11235      87   11241   11238   11244      87   11250   11247
   11253      87   11259   11256   11262      87   11268   11265   11271      87
   11277   11274   11280      87   11286   11283   11289      87   11295   11292
   11298      87   11304   11301   11307      87   11313   11310   11316      87
   11322   11319   11325      87   11331   11328   11334      87   11340   11337
   11343      87   11349   11346   11352      87   11358   11355   11361      87
   11367   11364   11370      87   11376   11373   11379      87   11385   11382
   11388      87   11394   11391   11397      87   11403   11400   11406      87
   11412   11409   11415      87   11421   11418   11424      87   11430   11427
   11433      87   11439   11436   11442      87   11448   11445   11451      87
   11457   11454   11460      87   11466   11463   11469      87   11475   11472
   11478      87   11484   11481   11487      87   11493   11490   11496      87
   11502   11499   11505      87   11511   11508   11514      87   11520   11517
   11523      87   11529   11526   11532      87   11538   11535   11541      87
   11547   11544   11550      87   11556   11553   11559      87   11565   11562
   11568      87   11574   11571   11577      87   11583   11580   11586      87
   11592   11589   11595      87   11601   11598   11604      87   11610   11607
   11613      87   11619   11616   11622      87   11628   11625   11631      87
   11637   11634   11640      87   11646   11643   11649      87   11655   11652
   11658      87   11664   11661   11667      87   11673   11670   11676      87
   11682   11679   11685      87   11691   11688   11694      87   11700   11697
   11703      87   11709   11706   11712      87   11718   11715   11721      87
   11727   11724   11730      87   11736   11733   11739      87   11745   11742
   11748      87   11754   11751   11757      87   11763   11760   11766      87
   11772   11769   11775      87   11781   11778   11784      87   11790   11787
   11793      87   11799   11796   11802      87   11808   11805   11811      87
   11817   11814   11820      87   11826   11823   11829      87   11835   11832
   11838      87   11844   11841   11847      87   11853   11850   11856      87
   11862   11859   11865      87   11871   11868   11874      87   11880   11877
   11883      87   11889   11886   11892      87   11898   11895   11901      87
   11907   11904   11910      87   11916   11913   11919      87   11925   11922
   11928      87   11934   11931   11937      87   11943   11940   11946      87
   11952   11949   11955      87   11961   11958   11964      87   11970   11967
   11973      87   11979   11976   11982      87   11988   11985   11991      87
   11997   11994   12000      87   12006   12003   12009      87   12015   12012
   12018      87   12024   12021   12027      87   12033   12030   12036      87
   12042   12039   12045      87   12051   12048   12054      87   12060   12057
   12063      87   12069   12066   12072      87   12078   12075   12081      87
   12087   12084   12090      87   12096   12093   12099      87   12105   12102
   12108      87   12114   12111   12117      87   12123   12120   12126      87
   12132   12129   12135      87   12141   12138   12144      87   12150   12147
   12153      87   12159   12156   12162      87   12168   12165   12171      87
   12177   12174   12180      87   12186   12183   12189      87   12195   12192
   12198      87   12204   12201   12207      87   12213   12210   12216      87
   12222   12219   12225      87   12231   12228   12234      87   12240   12237
   12243      87   12249   12246   12252      87   12258   12255   12261      87
   12267   12264   12270      87   12276   12273   12279      87   12285   12282
   12288      87   12294   12291   12297      87   12303   12300   12306      87
   12312   12309   12315      87   12321   12318   12324      87   12330   12327
   12333      87   12339   12336   12342      87   12348   12345   12351      87
   12357   12354   12360      87   12366   12363   12369      87   12375   12372
   12378      87   12384   12381   12387      87   12393   12390   12396      87
   12402   12399   12405      87   12411   12408   12414      87   12420   12417
   12423      87   12429   12426   12432      87   12438   12435   12441      87
   12447   12444   12450      87   12456   12453   12459      87   12465   12462
   12468      87   12474   12471   12477      87   12483   12480   12486      87
   12492   12489   12495      87   12501   12498   12504      87   12510   12507
   12513      87   12519   12516   12522      87   12528   12525   12531      87
   12537   12534   12540      87   12546   12543   12549      87   12555   12552
   12558      87   12564   12561   12567      87   12573   12570   12576      87
   12582   12579   12585      87   12591   12588   12594      87   12600   12597
   12603      87   12609   12606   12612      87   12618   12615   12621      87
   12627   12624   12630      87   12636   12633   12639      87   12645   12642
   12648      87   12654   12651   12657      87   12663   12660   12666      87
   12672   12669   12675      87   12681   12678   12684      87   12690   12687
   12693      87   12699   12696   12702      87   12708   12705   12711      87
   12717   12714   12720      87   12726   12723   12729      87   12735   12732
   12738      87   12744   12741   12747      87   12753   12750   12756      87
   12762   12759   12765      87   12771   12768   12774      87   12780   12777
   12783      87   12789   12786   12792      87   12798   12795   12801      87
   12807   12804   12810      87   12816   12813   12819      87   12825   12822
   12828      87   12834   12831   12837      87   12843   12840   12846      87
   12852   12849   12855      87   12861   12858   12864      87   12870   12867
   12873      87   12879   12876   12882      87   12888   12885   12891      87
   12897   12894   12900      87   12906   12903   12909      87   12915   12912
   12918      87   12924   12921   12927      87   12933   12930   12936      87
   12942   12939   12945      87   12951   12948   12954      87   12960   12957
   12963      87   12969   12966   12972      87   12978   12975   12981      87
   12987   12984   12990      87   12996   12993   12999      87   13005   13002
   13008      87   13014   13011   13017      87   13023   13020   13026      87
   13032   13029   13035      87   13041   13038   13044      87   13050   13047
   13053      87   13059   13056   13062      87   13068   13065   13071      87
   13077   13074   13080      87   13086   13083   13089      87   13095   13092
   13098      87   13104   13101   13107      87   13113   13110   13116      87
   13122   13119   13125      87   13131   13128   13134      87   13140   13137
   13143      87   13149   13146   13152      87   13158   13155   13161      87
   13167   13164   13170      87   13176   13173   13179      87   13185   13182
   13188      87   13194   13191   13197      87   13203   13200   13206      87
   13212   13209   13215      87   13221   13218   13224      87   13230   13227
   13233      87   13239   13236   13242      87   13248   13245   13251      87
   13257   13254   13260      87   13266   13263   13269      87   13275   13272
   13278      87   13284   13281   13287      87   13293   13290   13296      87
   13302   13299   13305      87   13311   13308   13314      87   13320   13317
   13323      87   13329   13326   13332      87   13338   13335   13341      87
   13347   13344   13350      87   13356   13353   13359      87   13365   13362
   13368      87   13374   13371   13377      87   13383   13380   13386      87
   13392   13389   13395      87   13401   13398   13404      87   13410   13407
   13413      87   13419   13416   13422      87   13428   13425   13431      87
   13437   13434   13440      87   13446   13443   13449      87   13455   13452
   13458      87   13464   13461   13467      87   13473   13470   13476      87
   13482   13479   13485      87   13491   13488   13494      87   13500   13497
   13503      87   13509   13506   13512      87   13518   13515   13521      87
   13527   13524   13530      87   13536   13533   13539      87   13545   13542
   13548      87   13554   13551   13557      87   13563   13560   13566      87
   13572   13569   13575      87   13581   13578   13584      87   13590   13587
   13593      87   13599   13596   13602      87   13608   13605   13611      87
   13617   13614   13620      87   13626   13623   13629      87   13635   13632
   13638      87   13644   13641   13647      87   13653   13650   13656      87
   13662   13659   13665      87   13671   13668   13674      87   13680   13677
   13683      87   13689   13686   13692      87   13698   13695   13701      87
   13707   13704   13710      87   13716   13713   13719      87   13725   13722
   13728      87   13734   13731   13737      87   13743   13740   13746      87
   13752   13749   13755      87   13761   13758   13764      87   13770   13767
   13773      87   13779   13776   13782      87   13788   13785   13791      87
   13797   13794   13800      87   13806   13803   13809      87   13815   13812
   13818      87   13824   13821   13827      87   13833   13830   13836      87
   13842   13839   13845      87   13851   13848   13854      87   13860   13857
   13863      87   13869   13866   13872      87   13878   13875   13881      87
   13887   13884   13890      87   13896   13893   13899      87   13905   13902
   13908      87   13914   13911   13917      87   13923   13920   13926      87
   13932   13929   13935      87   13941   13938   13944      87   13950   13947
   13953      87   13959   13956   13962      87   13968   13965   13971      87
   13977   13974   13980      87   13986   13983   13989      87   13995   13992
   13998      87   14004   14001   14007      87   14013   14010   14016      87
   14022   14019   14025      87   14031   14028   14034      87   14040   14037
   14043      87   14049   14046   14052      87   14058   14055   14061      87
   14067   14064   14070      87   14076   14073   14079      87   14085   14082
   14088      87   14094   14091   14097      87   14103   14100   14106      87
   14112   14109   14115      87   14121   14118   14124      87   14130   14127
   14133      87   14139   14136   14142      87   14148   14145   14151      87
   14157   14154   14160      87   14166   14163   14169      87   14175   14172
   14178      87   14184   14181   14187      87   14193   14190   14196      87
   14202   14199   14205      87   14211   14208   14214      87   14220   14217
   14223      87   14229   14226   14232      87   14238   14235   14241      87
   14247   14244   14250      87   14256   14253   14259      87   14265   14262
   14268      87   14274   14271   14277      87   14283   14280   14286      87
   14292   14289   14295      87   14301   14298   14304      87   14310   14307
   14313      87   14319   14316   14322      87   14328   14325   14331      87
   14337   14334   14340      87   14346   14343   14349      87   14355   14352
   14358      87   14364   14361   14367      87   14373   14370   14376      87
   14382   14379   14385      87   14391   14388   14394      87   14400   14397
   14403      87   14409   14406   14412      87   14418   14415   14421      87
   14427   14424   14430      87   14436   14433   14439      87   14445   14442
   14448      87   14454   14451   14457      87   14463   14460   14466      87
   14472   14469   14475      87   14481   14478   14484      87   14490   14487
   14493      87   14499   14496   14502      87   14508   14505   14511      87
   14517   14514   14520      87   14526   14523   14529      87   14535   14532
   14538      87   14544   14541   14547      87   14553   14550   14556      87
   14562   14559   14565      87   14571   14568   14574      87   14580   14577
   14583      87   14589   14586   14592      87   14598   14595   14601      87
   14607   14604   14610      87   14616   14613   14619      87   14625   14622
   14628      87   14634   14631   14637      87   14643   14640   14646      87
   14652   14649   14655      87   14661   14658   14664      87   14670   14667
   14673      87   14679   14676   14682      87   14688   14685   14691      87
   14697   14694   14700      87   14706   14703   14709      87   14715   14712
   14718      87   14724   14721   14727      87   14733   14730   14736      87
   14742   14739   14745      87   14751   14748   14754      87   14760   14757
   14763      87   14769   14766   14772      87   14778   14775   14781      87
   14787   14784   14790      87   14796   14793   14799      87   14805   14802
   14808      87   14814   14811   14817      87   14823   14820   14826      87
   14832   14829   14835      87   14841   14838   14844      87   14850   14847
   14853      87   14859   14856   14862      87   14868   14865   14871      87
   14877   14874   14880      87   14886   14883   14889      87   14895   14892
   14898      87   14904   14901   14907      87   14913   14910   14916      87
   14922   14919   14925      87   14931   14928   14934      87   14940   14937
   14943      87   14949   14946   14952      87   14958   14955   14961      87
   14967   14964   14970      87   14976   14973   14979      87   14985   14982
   14988      87   14994   14991   14997      87   15003   15000   15006      87
   15012   15009   15015      87   15021   15018   15024      87   15030   15027
   15033      87   15039   15036   15042      87   15048   15045   15051      87
   15057   15054   15060      87   15066   15063   15069      87   15075   15072
   15078      87   15084   15081   15087      87   15093   15090   15096      87
   15102   15099   15105      87   15111   15108   15114      87   15120   15117
   15123      87   15129   15126   15132      87   15138   15135   15141      87
   15147   15144   15150      87   15156   15153   15159      87   15165   15162
   15168      87   15174   15171   15177      87   15183   15180   15186      87
   15192   15189   15195      87   15201   15198   15204      87   15210   15207
   15213      87   15219   15216   15222      87   15228   15225   15231      87
   15237   15234   15240      87   15246   15243   15249      87   15255   15252
   15258      87   15264   15261   15267      87   15273   15270   15276      87
   15282   15279   15285      87   15291   15288   15294      87   15300   15297
   15303      87   15309   15306   15312      87   15318   15315   15321      87
   15327   15324   15330      87   15336   15333   15339      87   15345   15342
   15348      87   15354   15351   15357      87   15363   15360   15366      87
   15372   15369   15375      87   15381   15378   15384      87   15390   15387
   15393      87   15399   15396   15402      87   15408   15405   15411      87
   15417   15414   15420      87   15426   15423   15429      87   15435   15432
   15438      87   15444   15441   15447      87   15453   15450   15456      87
   15462   15459   15465      87   15471   15468   15474      87   15480   15477
   15483      87   15489   15486   15492      87   15498   15495   15501      87
   15507   15504   15510      87   15516   15513   15519      87   15525   15522
   15528      87   15534   15531   15537      87   15543   15540   15546      87
   15552   15549   15555      87   15561   15558   15564      87   15570   15567
   15573      87   15579   15576   15582      87   15588   15585   15591      87
   15597   15594   15600      87   15606   15603   15609      87   15615   15612
   15618      87   15624   15621   15627      87   15633   15630   15636      87
   15642   15639   15645      87   15651   15648   15654      87   15660   15657
   15663      87   15669   15666   15672      87   15678   15675   15681      87
   15687   15684   15690      87   15696   15693   15699      87   15705   15702
   15708      87   15714   15711   15717      87   15723   15720   15726      87
   15732   15729   15735      87   15741   15738   15744      87   15750   15747
   15753      87   15759   15756   15762      87   15768   15765   15771      87
   15777   15774   15780      87   15786   15783   15789      87   15795   15792
   15798      87   15804   15801   15807      87   15813   15810   15816      87
   15822   15819   15825      87   15831   15828   15834      87   15840   15837
   15843      87   15849   15846   15852      87   15858   15855   15861      87
   15867   15864   15870      87   15876   15873   15879      87   15885   15882
   15888      87   15894   15891   15897      87   15903   15900   15906      87
   15912   15909   15915      87   15921   15918   15924      87   15930   15927
   15933      87   15939   15936   15942      87   15948   15945   15951      87
   15957   15954   15960      87   15966   15963   15969      87   15975   15972
   15978      87   15984   15981   15987      87   15993   15990   15996      87
   16002   15999   16005      87   16011   16008   16014      87   16020   16017
   16023      87   16029   16026   16032      87   16038   16035   16041      87
   16047   16044   16050      87   16056   16053   16059      87   16065   16062
   16068      87   16074   16071   16077      87   16083   16080   16086      87
   16092   16089   16095      87   16101   16098   16104      87   16110   16107
   16113      87   16119   16116   16122      87   16128   16125   16131      87
   16137   16134   16140      87   16146   16143   16149      87   16155   16152
   16158      87   16164   16161   16167      87   16173   16170   16176      87
   16182   16179   16185      87   16191   16188   16194      87   16200   16197
   16203      87   16209   16206   16212      87   16218   16215   16221      87
   16227   16224   16230      87   16236   16233   16239      87   16245   16242
   16248      87   16254   16251   16257      87   16263   16260   16266      87
   16272   16269   16275      87   16281   16278   16284      87   16290   16287
   16293      87   16299   16296   16302      87   16308   16305   16311      87
   16317   16314   16320      87   16326   16323   16329      87   16335   16332
   16338      87   16344   16341   16347      87   16353   16350   16356      87
   16362   16359   16365      87   16371   16368   16374      87   16380   16377
   16383      87   16389   16386   16392      87   16398   16395   16401      87
   16407   16404   16410      87   16416   16413   16419      87   16425   16422
   16428      87   16434   16431   16437      87   16443   16440   16446      87
   16452   16449   16455      87   16461   16458   16464      87   16470   16467
   16473      87   16479   16476   16482      87   16488   16485   16491      87
   16497   16494   16500      87   16506   16503   16509      87   16515   16512
   16518      87   16524   16521   16527      87   16533   16530   16536      87
   16542   16539   16545      87   16551   16548   16554      87   16560   16557
   16563      87   16569   16566   16572      87   16578   16575   16581      87
   16587   16584   16590      87   16596   16593   16599      87   16605   16602
   16608      87   16614   16611   16617      87   16623   16620   16626      87
   16632   16629   16635      87   16641   16638   16644      87   16650   16647
   16653      87   16659   16656   16662      87   16668   16665   16671      87
   16677   16674   16680      87   16686   16683   16689      87   16695   16692
   16698      87   16704   16701   16707      87   16713   16710   16716      87
   16722   16719   16725      87   16731   16728   16734      87   16740   16737
   16743      87   16749   16746   16752      87   16758   16755   16761      87
   16767   16764   16770      87   16776   16773   16779      87   16785   16782
   16788      87   16794   16791   16797      87   16803   16800   16806      87
   16812   16809   16815      87   16821   16818   16824      87   16830   16827
   16833      87   16839   16836   16842      87   16848   16845   16851      87
   16857   16854   16860      87   16866   16863   16869      87   16875   16872
   16878      87   16884   16881   16887      87   16893   16890   16896      87
   16902   16899   16905      87   16911   16908   16914      87   16920   16917
   16923      87   16929   16926   16932      87   16938   16935   16941      87
   16947   16944   16950      87   16956   16953   16959      87   16965   16962
   16968      87   16974   16971   16977      87   16983   16980   16986      87
   16992   16989   16995      87   17001   16998   17004      87   17010   17007
   17013      87   17019   17016   17022      87   17028   17025   17031      87
   17037   17034   17040      87   17046   17043   17049      87   17055   17052
   17058      87   17064   17061   17067      87   17073   17070   17076      87
   17082   17079   17085      87   17091   17088   17094      87   17100   17097
   17103      87   17109   17106   17112      87   17118   17115   17121      87
   17127   17124   17130      87   17136   17133   17139      87   17145   17142
   17148      87   17154   17151   17157      87   17163   17160   17166      87
   17172   17169   17175      87   17181   17178   17184      87   17190   17187
   17193      87   17199   17196   17202      87   17208   17205   17211      87
   17217   17214   17220      87   17226   17223   17229      87   17235   17232
   17238      87   17244   17241   17247      87   17253   17250   17256      87
   17262   17259   17265      87   17271   17268   17274      87   17280   17277
   17283      87   17289   17286   17292      87   17298   17295   17301      87
   17307   17304   17310      87   17316   17313   17319      87   17325   17322
   17328      87   17334   17331   17337      87   17343   17340   17346      87
   17352   17349   17355      87   17361   17358   17364      87   17370   17367
   17373      87   17379   17376   17382      87   17388   17385   17391      87
   17397   17394   17400      87   17406   17403   17409      87   17415   17412
   17418      87   17424   17421   17427      87   17433   17430   17436      87
   17442   17439   17445      87   17451   17448   17454      87   17460   17457
   17463      87   17469   17466   17472      87   17478   17475   17481      87
   17487   17484   17490      87   17496   17493   17499      87   17505   17502
   17508      87   17514   17511   17517      87   17523   17520   17526      87
   17532   17529   17535      87   17541   17538   17544      87   17550   17547
   17553      87   17559   17556   17562      87   17568   17565   17571      87
   17577   17574   17580      87   17586   17583   17589      87   17595   17592
   17598      87   17604   17601   17607      87   17613   17610   17616      87
   17622   17619   17625      87   17631   17628   17634      87   17640   17637
   17643      87   17649   17646   17652      87   17658   17655   17661      87
   17667   17664   17670      87   17676   17673   17679      87   17685   17682
   17688      87   17694   17691   17697      87   17703   17700   17706      87
   17712   17709   17715      87   17721   17718   17724      87   17730   17727
   17733      87   17739   17736   17742      87   17748   17745   17751      87
   17757   17754   17760      87   17766   17763   17769      87   17775   17772
   17778      87   17784   17781   17787      87   17793   17790   17796      87
   17802   17799   17805      87   17811   17808   17814      87   17820   17817
   17823      87   17829   17826   17832      87   17838   17835   17841      87
   17847   17844   17850      87   17856   17853   17859      87   17865   17862
   17868      87   17874   17871   17877      87   17883   17880   17886      87
   17892   17889   17895      87   17901   17898   17904      87   17910   17907
   17913      87   17919   17916   17922      87   17928   17925   17931      87
   17937   17934   17940      87   17946   17943   17949      87   17955   17952
   17958      87   17964   17961   17967      87   17973   17970   17976      87
   17982   17979   17985      87   17991   17988   17994      87   18000   17997
   18003      87   18009   18006   18012      87   18018   18015   18021      87
   18027   18024   18030      87   18036   18033   18039      87   18045   18042
   18048      87   18054   18051   18057      87   18063   18060   18066      87
   18072   18069   18075      87   18081   18078   18084      87   18090   18087
   18093      87   18099   18096   18102      87   18108   18105   18111      87
   18117   18114   18120      87   18126   18123   18129      87   18135   18132
   18138      87   18144   18141   18147      87   18153   18150   18156      87
   18162   18159   18165      87   18171   18168   18174      87   18180   18177
   18183      87   18189   18186   18192      87   18198   18195   18201      87
   18207   18204   18210      87   18216   18213   18219      87   18225   18222
   18228      87   18234   18231   18237      87   18243   18240   18246      87
   18252   18249   18255      87   18261   18258   18264      87   18270   18267
   18273      87   18279   18276   18282      87   18288   18285   18291      87
   18297   18294   18300      87   18306   18303   18309      87   18315   18312
   18318      87   18324   18321   18327      87   18333   18330   18336      87
   18342   18339   18345      87   18351   18348   18354      87   18360   18357
   18363      87   18369   18366   18372      87   18378   18375   18381      87
   18387   18384   18390      87   18396   18393   18399      87   18405   18402
   18408      87   18414   18411   18417      87   18423   18420   18426      87
   18432   18429   18435      87   18441   18438   18444      87   18450   18447
   18453      87   18459   18456   18462      87   18468   18465   18471      87
   18477   18474   18480      87   18486   18483   18489      87   18495   18492
   18498      87   18504   18501   18507      87   18513   18510   18516      87
   18522   18519   18525      87   18531   18528   18534      87   18540   18537
   18543      87   18549   18546   18552      87   18558   18555   18561      87
   18567   18564   18570      87   18576   18573   18579      87   18585   18582
   18588      87   18594   18591   18597      87   18603   18600   18606      87
   18612   18609   18615      87   18621   18618   18624      87   18630   18627
   18633      87   18639   18636   18642      87   18648   18645   18651      87
   18657   18654   18660      87   18666   18663   18669      87   18675   18672
   18678      87   18684   18681   18687      87   18693   18690   18696      87
   18702   18699   18705      87   18711   18708   18714      87   18720   18717
   18723      87   18729   18726   18732      87   18738   18735   18741      87
   18747   18744   18750      87   18756   18753   18759      87   18765   18762
   18768      87   18774   18771   18777      87   18783   18780   18786      87
   18792   18789   18795      87   18801   18798   18804      87   18810   18807
   18813      87   18819   18816   18822      87   18828   18825   18831      87
   18837   18834   18840      87   18846   18843   18849      87   18855   18852
   18858      87   18864   18861   18867      87   18873   18870   18876      87
   18882   18879   18885      87   18891   18888   18894      87   18900   18897
   18903      87   18909   18906   18912      87   18918   18915   18921      87
   18927   18924   18930      87   18936   18933   18939      87   18945   18942
   18948      87   18954   18951   18957      87   18963   18960   18966      87
   18972   18969   18975      87   18981   18978   18984      87   18990   18987
   18993      87   18999   18996   19002      87   19008   19005   19011      87
   19017   19014   19020      87   19026   19023   19029      87   19035   19032
   19038      87   19044   19041   19047      87   19053   19050   19056      87
   19062   19059   19065      87   19071   19068   19074      87   19080   19077
   19083      87   19089   19086   19092      87   19098   19095   19101      87
   19107   19104   19110      87   19116   19113   19119      87   19125   19122
   19128      87   19134   19131   19137      87   19143   19140   19146      87
   19152   19149   19155      87   19161   19158   19164      87   19170   19167
   19173      87   19179   19176   19182      87   19188   19185   19191      87
   19197   19194   19200      87   19206   19203   19209      87   19215   19212
   19218      87   19224   19221   19227      87   19233   19230   19236      87
   19242   19239   19245      87   19251   19248   19254      87   19260   19257
   19263      87   19269   19266   19272      87   19278   19275   19281      87
   19287   19284   19290      87   19296   19293   19299      87   19305   19302
   19308      87   19314   19311   19317      87   19323   19320   19326      87
   19332   19329   19335      87   19341   19338   19344      87   19350   19347
   19353      87   19359   19356   19362      87   19368   19365   19371      87
   19377   19374   19380      87   19386   19383   19389      87   19395   19392
   19398      87   19404   19401   19407      87   19413   19410   19416      87
   19422   19419   19425      87   19431   19428   19434      87   19440   19437
   19443      87   19449   19446   19452      87   19458   19455   19461      87
   19467   19464   19470      87   19476   19473   19479      87   19485   19482
   19488      87   19494   19491   19497      87   19503   19500   19506      87
   19512   19509   19515      87   19521   19518   19524      87   19530   19527
   19533      87   19539   19536   19542      87   19548   19545   19551      87
   19557   19554   19560      87   19566   19563   19569      87   19575   19572
   19578      87   19584   19581   19587      87   19593   19590   19596      87
   19602   19599   19605      87   19611   19608   19614      87   19620   19617
   19623      87   19629   19626   19632      87   19638   19635   19641      87
   19647   19644   19650      87   19656   19653   19659      87   19665   19662
   19668      87   19674   19671   19677      87   19683   19680   19686      87
   19692   19689   19695      87   19701   19698   19704      87   19710   19707
   19713      87   19719   19716   19722      87   19728   19725   19731      87
   19737   19734   19740      87   19746   19743   19749      87   19755   19752
   19758      87   19764   19761   19767      87   19773   19770   19776      87
   19782   19779   19785      87   19791   19788   19794      87   19800   19797
   19803      87   19809   19806   19812      87   19818   19815   19821      87
   19827   19824   19830      87   19836   19833   19839      87   19845   19842
   19848      87   19854   19851   19857      87   19863   19860   19866      87
   19872   19869   19875      87   19881   19878   19884      87   19890   19887
   19893      87   19899   19896   19902      87   19908   19905   19911      87
   19917   19914   19920      87   19926   19923   19929      87   19935   19932
   19938      87   19944   19941   19947      87   19953   19950   19956      87
   19962   19959   19965      87   19971   19968   19974      87   19980   19977
   19983      87   19989   19986   19992      87   19998   19995   20001      87
   20007   20004   20010      87   20016   20013   20019      87   20025   20022
   20028      87   20034   20031   20037      87   20043   20040   20046      87
   20052   20049   20055      87   20061   20058   20064      87   20070   20067
   20073      87   20079   20076   20082      87   20088   20085   20091      87
   20097   20094   20100      87   20106   20103   20109      87   20115   20112
   20118      87   20124   20121   20127      87   20133   20130   20136      87
   20142   20139   20145      87   20151   20148   20154      87   20160   20157
   20163      87   20169   20166   20172      87   20178   20175   20181      87
   20187   20184   20190      87   20196   20193   20199      87   20205   20202
   20208      87   20214   20211   20217      87   20223   20220   20226      87
   20232   20229   20235      87   20241   20238   20244      87   20250   20247
   20253      87   20259   20256   20262      87   20268   20265   20271      87
   20277   20274   20280      87   20286   20283   20289      87   20295   20292
   20298      87   20304   20301   20307      87   20313   20310   20316      87
   20322   20319   20325      87   20331   20328   20334      87   20340   20337
   20343      87   20349   20346   20352      87   20358   20355   20361      87
   20367   20364   20370      87   20376   20373   20379      87   20385   20382
   20388      87   20394   20391   20397      87   20403   20400   20406      87
   20412   20409   20415      87   20421   20418   20424      87   20430   20427
   20433      87   20439   20436   20442      87   20448   20445   20451      87
   20457   20454   20460      87   20466   20463   20469      87   20475   20472
   20478      87   20484   20481   20487      87   20493   20490   20496      87
   20502   20499   20505      87   20511   20508   20514      87   20520   20517
   20523      87   20529   20526   20532      87   20538   20535   20541      87
   20547   20544   20550      87   20556   20553   20559      87   20565   20562
   20568      87   20574   20571   20577      87   20583   20580   20586      87
   20592   20589   20595      87   20601   20598   20604      87   20610   20607
   20613      87   20619   20616   20622      87   20628   20625   20631      87
   20637   20634   20640      87   20646   20643   20649      87   20655   20652
   20658      87   20664   20661   20667      87   20673   20670   20676      87
   20682   20679   20685      87   20691   20688   20694      87   20700   20697
   20703      87   20709   20706   20712      87   20718   20715   20721      87
   20727   20724   20730      87   20736   20733   20739      87   20745   20742
   20748      87   20754   20751   20757      87   20763   20760   20766      87
   20772   20769   20775      87   20781   20778   20784      87   20790   20787
   20793      87   20799   20796   20802      87   20808   20805   20811      87
   20817   20814   20820      87   20826   20823   20829      87   20835   20832
   20838      87   20844   20841   20847      87   20853   20850   20856      87
   20862   20859   20865      87   20871   20868   20874      87   20880   20877
   20883      87   20889   20886   20892      87   20898   20895   20901      87
   20907   20904   20910      87   20916   20913   20919      87   20925   20922
   20928      87   20934   20931   20937      87   20943   20940   20946      87
   20952   20949   20955      87   20961   20958   20964      87   20970   20967
   20973      87   20979   20976   20982      87   20988   20985   20991      87
   20997   20994   21000      87   21006   21003   21009      87   21015   21012
   21018      87   21024   21021   21027      87   21033   21030   21036      87
   21042   21039   21045      87   21051   21048   21054      87   21060   21057
   21063      87   21069   21066   21072      87   21078   21075   21081      87
   21087   21084   21090      87   21096   21093   21099      87   21105   21102
   21108      87   21114   21111   21117      87   21123   21120   21126      87
   21132   21129   21135      87   21141   21138   21144      87   21150   21147
   21153      87   21159   21156   21162      87   21168   21165   21171      87
   21177   21174   21180      87   21186   21183   21189      87   21195   21192
   21198      87   21204   21201   21207      87   21213   21210   21216      87
   21222   21219   21225      87   21231   21228   21234      87   21240   21237
   21243      87   21249   21246   21252      87   21258   21255   21261      87
   21267   21264   21270      87   21276   21273   21279      87   21285   21282
   21288      87   21294   21291   21297      87   21303   21300   21306      87
   21312   21309   21315      87   21321   21318   21324      87   21330   21327
   21333      87   21339   21336   21342      87   21348   21345   21351      87
   21357   21354   21360      87   21366   21363   21369      87   21375   21372
   21378      87   21384   21381   21387      87   21393   21390   21396      87
   21402   21399   21405      87   21411   21408   21414      87   21420   21417
   21423      87   21429   21426   21432      87   21438   21435   21441      87
   21447   21444   21450      87   21456   21453   21459      87   21465   21462
   21468      87   21474   21471   21477      87   21483   21480   21486      87
   21492   21489   21495      87   21501   21498   21504      87   21510   21507
   21513      87   21519   21516   21522      87   21528   21525   21531      87
   21537   21534   21540      87   21546   21543   21549      87   21555   21552
   21558      87   21564   21561   21567      87   21573   21570   21576      87
   21582   21579   21585      87   21591   21588   21594      87   21600   21597
   21603      87   21609   21606   21612      87   21618   21615   21621      87
   21627   21624   21630      87   21636   21633   21639      87   21645   21642
   21648      87   21654   21651   21657      87   21663   21660   21666      87
   21672   21669   21675      87   21681   21678   21684      87   21690   21687
   21693      87   21699   21696   21702      87   21708   21705   21711      87
   21717   21714   21720      87   21726   21723   21729      87   21735   21732
   21738      87   21744   21741   21747      87   21753   21750   21756      87
   21762   21759   21765      87   21771   21768   21774      87   21780   21777
   21783      87   21789   21786   21792      87   21798   21795   21801      87
   21807   21804   21810      87   21816   21813   21819      87   21825   21822
   21828      87   21834   21831   21837      87   21843   21840   21846      87
   21852   21849   21855      87   21861   21858   21864      87   21870   21867
   21873      87   21879   21876   21882      87   21888   21885   21891      87
   21897   21894   21900      87   21906   21903   21909      87   21915   21912
   21918      87   21924   21921   21927      87   21933   21930   21936      87
   21942   21939   21945      87   21951   21948   21954      87   21960   21957
   21963      87   21969   21966   21972      87   21978   21975   21981      87
   21987   21984   21990      87   21996   21993   21999      87   22005   22002
   22008      87   22014   22011   22017      87   22023   22020   22026      87
   22032   22029   22035      87   22041   22038   22044      87   22050   22047
   22053      87   22059   22056   22062      87   22068   22065   22071      87
   22077   22074   22080      87   22086   22083   22089      87   22095   22092
   22098      87   22104   22101   22107      87   22113   22110   22116      87
   22122   22119   22125      87   22131   22128   22134      87   22140   22137
   22143      87   22149   22146   22152      87   22158   22155   22161      87
   22167   22164   22170      87   22176   22173   22179      87   22185   22182
   22188      87   22194   22191   22197      87   22203   22200   22206      87
   22212   22209   22215      87   22221   22218   22224      87   22230   22227
   22233      87   22239   22236   22242      87   22248   22245   22251      87
   22257   22254   22260      87   22266   22263   22269      87   22275   22272
   22278      87   22284   22281   22287      87   22293   22290   22296      87
   22302   22299   22305      87   22311   22308   22314      87   22320   22317
   22323      87   22329   22326   22332      87   22338   22335   22341      87
   22347   22344   22350      87   22356   22353   22359      87   22365   22362
   22368      87   22374   22371   22377      87   22383   22380   22386      87
   22392   22389   22395      87   22401   22398   22404      87   22410   22407
   22413      87   22419   22416   22422      87   22428   22425   22431      87
   22437   22434   22440      87   22446   22443   22449      87   22455   22452
   22458      87   22464   22461   22467      87   22473   22470   22476      87
   22482   22479   22485      87   22491   22488   22494      87   22500   22497
   22503      87   22509   22506   22512      87   22518   22515   22521      87
   22527   22524   22530      87   22536   22533   22539      87   22545   22542
   22548      87   22554   22551   22557      87   22563   22560   22566      87
   22572   22569   22575      87   22581   22578   22584      87   22590   22587
   22593      87   22599   22596   22602      87   22608   22605   22611      87
   22617   22614   22620      87   22626   22623   22629      87   22635   22632
   22638      87   22644   22641   22647      87   22653   22650   22656      87
   22662   22659   22665      87   22671   22668   22674      87   22680   22677
   22683      87   22689   22686   22692      87   22698   22695   22701      87
   22707   22704   22710      87   22716   22713   22719      87   22725   22722
   22728      87   22734   22731   22737      87   22743   22740   22746      87
   22752   22749   22755      87   22761   22758   22764      87   22770   22767
   22773      87   22779   22776   22782      87   22788   22785   22791      87
   22797   22794   22800      87   22806   22803   22809      87   22815   22812
   22818      87   22824   22821   22827      87   22833   22830   22836      87
   22842   22839   22845      87   22851   22848   22854      87   22860   22857
   22863      87   22869   22866   22872      87   22878   22875   22881      87
   22887   22884   22890      87   22896   22893   22899      87   22905   22902
   22908      87   22914   22911   22917      87   22923   22920   22926      87
   22932   22929   22935      87   22941   22938   22944      87   22950   22947
   22953      87   22959   22956   22962      87   22968   22965   22971      87
   22977   22974   22980      87   22986   22983   22989      87   22995   22992
   22998      87   23004   23001   23007      87   23013   23010   23016      87
   23022   23019   23025      87   23031   23028   23034      87   23040   23037
   23043      87   23049   23046   23052      87   23058   23055   23061      87
   23067   23064   23070      87   23076   23073   23079      87   23085   23082
   23088      87   23094   23091   23097      87   23103   23100   23106      87
   23112   23109   23115      87   23121   23118   23124      87   23130   23127
   23133      87   23139   23136   23142      87   23148   23145   23151      87
   23157   23154   23160      87   23166   23163   23169      87   23175   23172
   23178      87   23184   23181   23187      87   23193   23190   23196      87
   23202   23199   23205      87   23211   23208   23214      87   23220   23217
   23223      87   23229   23226   23232      87   23238   23235   23241      87
   23247   23244   23250      87   23256   23253   23259      87   23265   23262
   23268      87   23274   23271   23277      87   23283   23280   23286      87
   23292   23289   23295      87   23301   23298   23304      87   23310   23307
   23313      87   23319   23316   23322      87   23328   23325   23331      87
   23337   23334   23340      87   23346   23343   23349      87   23355   23352
   23358      87   23364   23361   23367      87   23373   23370   23376      87
   23382   23379   23385      87   23391   23388   23394      87   23400   23397
   23403      87   23409   23406   23412      87   23418   23415   23421      87
   23427   23424   23430      87   23436   23433   23439      87   23445   23442
   23448      87   23454   23451   23457      87   23463   23460   23466      87
   23472   23469   23475      87   23481   23478   23484      87   23490   23487
   23493      87   23499   23496   23502      87   23508   23505   23511      87
   23517   23514   23520      87   23526   23523   23529      87   23535   23532
   23538      87   23544   23541   23547      87   23553   23550   23556      87
   23562   23559   23565      87   23571   23568   23574      87   23580   23577
   23583      87   23589   23586   23592      87   23598   23595   23601      87
   23607   23604   23610      87   23616   23613   23619      87   23625   23622
   23628      87   23634   23631   23637      87   23643   23640   23646      87
   23652   23649   23655      87   23661   23658   23664      87   23670   23667
   23673      87   23679   23676   23682      87   23688   23685   23691      87
   23697   23694   23700      87   23706   23703   23709      87   23715   23712
   23718      87   23724   23721   23727      87   23733   23730   23736      87
   23742   23739   23745      87   23751   23748   23754      87   23760   23757
   23763      87   23769   23766   23772      87   23778   23775   23781      87
   23787   23784   23790      87   23796   23793   23799      87   23805   23802
   23808      87   23814   23811   23817      87   23823   23820   23826      87
   23832   23829   23835      87   23841   23838   23844      87   23850   23847
   23853      87   23859   23856   23862      87   23868   23865   23871      87
   23877   23874   23880      87   23886   23883   23889      87   23895   23892
   23898      87   23904   23901   23907      87   23913   23910   23916      87
   23922   23919   23925      87   23931   23928   23934      87   23940   23937
   23943      87   23949   23946   23952      87   23958   23955   23961      87
   23967   23964   23970      87   23976   23973   23979      87   23985   23982
   23988      87   23994   23991   23997      87   24003   24000   24006      87
   24012   24009   24015      87   24021   24018   24024      87   24030   24027
   24033      87   24039   24036   24042      87   24048   24045   24051      87
   24057   24054   24060      87   24066   24063   24069      87   24075   24072
   24078      87   24084   24081   24087      87   24093   24090   24096      87
   24102   24099   24105      87   24111   24108   24114      87   24120   24117
   24123      87   24129   24126   24132      87   24138   24135   24141      87
   24147   24144   24150      87   24156   24153   24159      87   24165   24162
   24168      87   24174   24171   24177      87   24183   24180   24186      87
   24192   24189   24195      87   24201   24198   24204      87   24210   24207
   24213      87   24219   24216   24222      87   24228   24225   24231      87
   24237   24234   24240      87   24246   24243   24249      87   24255   24252
   24258      87   24264   24261   24267      87   24273   24270   24276      87
   24282   24279   24285      87   24291   24288   24294      87   24300   24297
   24303      87   24309   24306   24312      87   24318   24315   24321      87
   24327   24324   24330      87   24336   24333   24339      87   24345   24342
   24348      87   24354   24351   24357      87   24363   24360   24366      87
   24372   24369   24375      87   24381   24378   24384      87   24390   24387
   24393      87   24399   24396   24402      87   24408   24405   24411      87
   24417   24414   24420      87   24426   24423   24429      87   24435   24432
   24438      87   24444   24441   24447      87   24453   24450   24456      87
   24462   24459   24465      87   24471   24468   24474      87   24480   24477
   24483      87   24489   24486   24492      87   24498   24495   24501      87
   24507   24504   24510      87   24516   24513   24519      87   24525   24522
   24528      87   24534   24531   24537      87   24543   24540   24546      87
   24552   24549   24555      87   24561   24558   24564      87   24570   24567
   24573      87   24579   24576   24582      87   24588   24585   24591      87
   24597   24594   24600      87   24606   24603   24609      87   24615   24612
   24618      87   24624   24621   24627      87   24633   24630   24636      87
   24642   24639   24645      87   24651   24648   24654      87   24660   24657
   24663      87   24669   24666   24672      87   24678   24675   24681      87
   24687   24684   24690      87   24696   24693   24699      87   24705   24702
   24708      87   24714   24711   24717      87   24723   24720   24726      87
   24732   24729   24735      87   24741   24738   24744      87   24750   24747
   24753      87   24759   24756   24762      87   24768   24765   24771      87
   24777   24774   24780      87   24786   24783   24789      87   24795   24792
   24798      87   24804   24801   24807      87   24813   24810   24816      87
   24822   24819   24825      87   24831   24828   24834      87   24840   24837
   24843      87   24849   24846   24852      87   24858   24855   24861      87
   24867   24864   24870      87   24876   24873   24879      87   24885   24882
   24888      87   24894   24891   24897      87   24903   24900   24906      87
   24912   24909   24915      87   24921   24918   24924      87   24930   24927
   24933      87   24939   24936   24942      87   24948   24945   24951      87
   24957   24954   24960      87   24966   24963   24969      87   24975   24972
   24978      87   24984   24981   24987      87   24993   24990   24996      87
   25002   24999   25005      87   25011   25008   25014      87   25020   25017
   25023      87   25029   25026   25032      87   25038   25035   25041      87
%FLAG ANGLES_WITHOUT_HYDROGEN                                                   
%FORMAT(10I8)                                                                   
      24      21      27       1      21      27      33       3      12      21
      24       6      12      21      27       7       0      12      21      11
      87      84      90       1      84      90      96       3      66      63
      72      13      63      72      78      16      57      63      66      13
      57      63      72      17      51      48      78      18      51      57
      63      16      48      51      57      18      48      78      72      18
      39      33      84      21      39      48      51      22      39      48
      78      22      33      39      48      26      33      84      87       6
      33      84      90       7      27      33      39      29      27      33
      84      30     123     120     126       1     120     126     129      31
     120     126     156       3     114     111     117      32     102      96
     120      35     102     111     114      36     102     111     117      36
      96     102     111      39      96     120     123       6      96     120
     126       7      90      96     102      40      90      96     120      30
     165     162     168       1     162     168     174       3     156     162
     165       6     156     162     168       7     147     156     162      21
     138     147     156      42     129     126     156      45     129     138
     147      46     126     129     138      48     126     156     147      29
     126     156     162      30     210     207     213       1     207     213
     219       3     201     198     204      32     189     198     201      36
     189     198     204      36     180     174     207      35     180     189
     198      50     174     180     189      51     174     207     210       6
     174     207     213       7     168     174     180      40     168     174
     207      30     252     249     255       1     249     255     261       3
     231     225     243      52     225     219     249      55     219     225
     231      60     219     225     243      61     219     249     252       6
     219     249     255       7     213     219     225      62     213     219
     249      30     273     270     276       1     270     276     282       3
     261     270     273       6     261     270     276       7     255     261
     270      30     315     312     318       1     312     318     324       3
     294     288     306      52     288     282     312      55     282     288
     294      60     282     288     306      61     282     312     315       6
     282     312     318       7     276     282     288      62     276     282
     312      30     387     384     390       1     384     390     396       3
     369     375     381      65     363     369     375      18     357     354
     381      66     357     363     369      18     354     357     363      68
     354     381     375      69     348     354     357      71     348     354
     381      72     342     339     381      74     342     348     354      76
     339     342     348      78     339     381     354      79     339     381
     375      80     330     324     384      21     330     339     342      82
     330     339     381      83     324     330     339      84     324     384
     387       6     324     384     390       7     318     324     330      29
     318     324     384      30     408     405     411      85     396     405
     408      86     396     405     411      86     390     396     405      30
%FLAG DIHEDRALS_INC_HYDROGEN                                                    
%FORMAT(10I8)                                                                   
      24      21      27      30       1      24      21     -27      30       2
      21      27      33      36       3      18      12      21      24       3
      18      12      21      27       3      15      12      21      24       3
      15      12      21      27       3      12      21      27      30       2
       9       0      12      15      10       9       0      12      18      10
       9       0      12      21      10       6       0      12      15      10
       6       0      12      18      10       6       0      12      21      10
       3       0      12      15      10       3       0      12      18      10
       3       0      12      21      10      87      84      90      93       1
      87      84     -90      93       2      84      90      96      99       3
      75      72      78      81      11      69      66      63      72       7
      69      66     -63      72      12      69      66     -63      72      13
      69      66     -63      72      14      66      63      72      75      11
      63      72      78      81      11      60      57      63      66      11
      60      57      63      72      11      57      63      66      69       7
      57      63     -66      69      12      57      63     -66      69      13
      57      63     -66      69      14      57      63      72      75      11
      54      51      48      78      11      54      51      57      60      11
      54      51      57      63      11      51      48      78      81      11
      48      51      57      60      11      48      78      72      75      11
      45      39      33      84      10      45      39      48      51       3
      45      39      48      78       3      42      39      33      84      10
      42      39      48      51       3      42      39      48      78       3
      39      48      51      54      11      39      48      78      81      11
      36      33      39      42      10      36      33      39      45      10
      36      33      39      48      10      36      33      84      87      22
      36      33     -84      87       3      36      33     -84      87      23
      36      33      84      90       3      33      84      90      93       2
      30      27      33      36       3      30      27      33      39       3
      30      27      33      84       3      27      33      39      42      10
      27      33      39      45      10     120     126     129     132       3
     120     126     129     135       3     120     126     156     159       3
     108     102      96     120      10     108     102     111     114       3
     108     102     111     117       3     105     102      96     120      10
     105     102     111     114       3     105     102     111     117       3
      99      96     102     105      10      99      96     102     108      10
      99      96     102     111      10      99      96     120     123      22
      99      96    -120     123       3      99      96    -120     123      23
      99      96     120     126       3      93      90      96      99       3
      93      90      96     102       3      93      90      96     120       3
      90      96     102     105      10      90      96     102     108      10
     165     162     168     171       1     165     162    -168     171       2
     162     168     174     177       3     159     156     162     165      22
     159     156    -162     165       3     159     156    -162     165      23
     159     156     162     168       3     156     162     168     171       2
     153     147     156     159      10     153     147     156     162      10
     150     147     156     159      10     150     147     156     162      10
     144     138     147     150      42     144     138     147     153      42
     144     138     147     156      43     141     138     147     150      42
     141     138     147     153      42     141     138     147     156      43
     138     147     156     159      10     135     129     126     156       3
     135     129     138     141      10     135     129     138     144      10
     135     129     138     147      10     132     129     126     156       3
     132     129     138     141      10     132     129     138     144      10
     132     129     138     147      10     129     126     156     159       3
     129     138     147     150      43     129     138     147     153      43
     126     129     138     141      10     126     129     138     144      10
     126     156     147     150      10     126     156     147     153      10
     210     207     213     216       1     210     207    -213     216       2
     207     213     219     222       3     195     189     198     201       3
     195     189     198     204       3     192     189     198     201       3
     192     189     198     204       3     186     180     174     207      10
     186     180     189     192      42     186     180     189     195      42
     186     180     189     198      10     183     180     174     207      10
     183     180     189     192      42     183     180     189     195      42
     183     180     189     198      10     177     174     180     183      10
     177     174     180     186      10     177     174     180     189      10
     177     174     207     210      22     177     174    -207     210       3
     177     174    -207     210      23     177     174     207     213       3
     174     180     189     192      43     174     180     189     195      43
     174     207     213     216       2     171     168     174     177       3
     171     168     174     180       3     171     168     174     207       3
     168     174     180     183      10     168     174     180     186      10
     252     249     255     258       1     252     249    -255     258       2
     249     255     261     264       3     249     255     261     267       3
     240     231     225     243      64     240     231    -225     243      13
     237     231     225     243      64     237     231    -225     243      13
     234     231     225     243      64     234     231    -225     243      13
     231     225     243     246      69     231     225    -243     246      70
     231     225    -243     246      71     231     225    -243     246      72
     228     225     219     249      10     228     225     231     234      10
     228     225     231     237      10     228     225     231     240      10
     228     225     243     246      73     222     219     225     228      10
     222     219     225     231      10     222     219     225     243      64
     222     219    -225     243      13     222     219     249     252      22
     222     219    -249     252       3     222     219    -249     252      23
     222     219     249     255       3     219     225     231     234      43
     219     225     231     237      43     219     225     231     240      43
     219     225     243     246      74     219     225    -243     246      75
     219     225    -243     246      71     219     225    -243     246      76
     219     249     255     258       2     216     213     219     222       3
     216     213     219     225       3     216     213     219     249       3
     213     219     225     228      10     273     270     276     279       1
     273     270    -276     279       2     270     276     282     285       3
     267     261     270     273      22     267     261    -270     273       3
     267     261    -270     273      23     267     261     270     276       3
     264     261     270     273      22     264     261    -270     273       3
     264     261    -270     273      23     264     261     270     276       3
     261     270     276     279       2     258     255     261     264       3
     258     255     261     267       3     258     255     261     270       3
     315     312     318     321       1     315     312    -318     321       2
     312     318     324     327       3     303     294     288     306      64
     303     294    -288     306      13     300     294     288     306      64
     300     294    -288     306      13     297     294     288     306      64
     297     294    -288     306      13     294     288     306     309      69
     294     288    -306     309      70     294     288    -306     309      71
     294     288    -306     309      72     291     288     282     312      10
     291     288     294     297      10     291     288     294     300      10
     291     288     294     303      10     291     288     306     309      73
     285     282     288     291      10     285     282     288     294      10
     285     282     288     306      64     285     282    -288     306      13
     285     282     312     315      22     285     282    -312     315       3
     285     282    -312     315      23     285     282     312     318       3
     282     288     294     297      43     282     288     294     300      43
     282     288     294     303      43     282     288     306     309      74
     282     288    -306     309      75     282     288    -306     309      71
     282     288    -306     309      76     282     312     318     321       2
     279     276     282     285       3     279     276     282     288       3
     279     276     282     312       3     276     282     288     291      10
     387     384     390     393       1     387     384    -390     393       2
     384     390     396     399       3     384     390     396     402       3
     372     369     375     378      11     372     369     375     381      11
     366     363     369     372      11     366     363     369     375      11
     363     369     375     378      11     360     357     354     381      11
     360     357     363     366      11     360     357     363     369      11
     357     363     369     372      11     354     357     363     366      11
     354     381     375     378      84     351     348     354     357      85
     351     348     354     381      85     348     354     357     360      11
     345     342     339     381      86     345     342     348     351      87
     345     342     348     354      87     339     342     348     351      87
     339     381     375     378      84     336     330     324     384      10
     336     330     339     342       3     336     330     339     381       3
     333     330     324     384      10     333     330     339     342       3
     333     330     339     381       3     330     339     342     345      86
     327     324     330     333      10     327     324     330     336      10
     327     324     330     339      10     327     324     384     387      22
     327     324    -384     387       3     327     324    -384     387      23
     327     324     384     390       3     324     384     390     393       2
     321     318     324     327       3     321     318     324     330       3
     321     318     324     384       3     318     324     330     333      10
     318     324     330     336      10     402     396     405     408       3
     402     396     405     411       3     399     396     405     408       3
     399     396     405     411       3     393     390     396     399       3
     393     390     396     402       3     393     390     396     405       3
      48      72     -78     -81     101      63      78     -72     -75     101
      51      63     -57     -60     101      48      57     -51     -54     101
      21      33     -27     -30     101      84      96     -90     -93     101
     162     174    -168    -171     101     207     219    -213    -216     101
     249     261    -255    -258     101     270     282    -276    -279     101
     369     381    -375    -378     101     363     375    -369    -372     101
     357     369    -363    -366     101     354     363    -357    -360     101
     342     354    -348    -351     102     339     348    -342    -345     101
     312     324    -318    -321     101     384     396    -390    -393     101
%FLAG DIHEDRALS_WITHOUT_HYDROGEN                                                
%FORMAT(10I8)                                                                   
      24      21      27      33       2      21      27      33      39       1
      21      27     -33      39       4      21      27     -33      39       5
      21      27     -33      39       6      21      27      33      84       7
      21      27     -33      84       8      21      27     -33      84       9
      21      27     -33      84       6      12      21      27      33       2
       0      12      21      24       3       0      12      21      27       3
      87      84      90      96       2      84      90      96     102       1
      84      90     -96     102       4      84      90     -96     102       5
      84      90     -96     102       6      84      90      96     120       7
      84      90     -96     120       8      84      90     -96     120       9
      84      90     -96     120       6      66      63      72      78      11
      57      51      48      78      11      57      63     -72      78      11
      51      48      78      72      11      51      57      63      66      11
      51      57     -63      72      11      48      39      33      84      15
      48      39     -33      84      16      48      39     -33      84      17
      48      39     -33      84      18      48      51      57      63      11
      48      78     -72      63      11      39      33      84      87       3
      39      33      84      90      19      39      33     -84      90      20
      39      33     -84      90      21      39      33     -84      90       6
      39      48      51      57      11      39      48      78      72      11
      33      39      48      51       7      33      39     -48      51      24
      33      39     -48      51      13      33      39     -48      51      25
      33      39      48      78       7      33      39     -48      78      24
      33      39     -48      78      13      33      39     -48      78      25
      33      84      90      96       2      27      33      39      48      26
      27      33     -39      48      27      27      33     -39      48      17
      27      33     -39      48      28      27      33      84      87       3
      27      33      84      90      29      27      33     -84      90      30
      27      33     -84      90      31      27      33     -84      90       6
     123     120     126     129       2     123     120     126     156       2
     120     126     129     138       1     120     126    -129     138      32
     120     126    -129     138      21     120     126    -129     138       6
     120     126     156     147       1     120     126    -156     147       4
     120     126    -156     147       5     120     126    -156     147       6
     120     126     156     162       7     120     126    -156     162       8
     120     126    -156     162       9     120     126    -156     162       6
     111     102      96     120      33     111     102     -96     120      34
     111     102     -96     120      35     111     102     -96     120      36
     102      96     120     123       3     102      96     120     126      19
     102      96    -120     126      20     102      96    -120     126      21
     102      96    -120     126       6      96     102     111     114       7
      96     102    -111     114      37      96     102    -111     114      13
      96     102    -111     114      38      96     102     111     117       7
      96     102    -111     117      37      96     102    -111     117      13
      96     102    -111     117      38      96     120     126     129       2
      96     120     126     156       2      90      96     102     111      39
      90      96    -102     111      40      90      96    -102     111      35
      90      96    -102     111      41      90      96     120     123       3
      90      96     120     126      29      90      96    -120     126      30
      90      96    -120     126      31      90      96    -120     126       6
     165     162     168     174       2     162     168     174     180       1
     162     168    -174     180       4     162     168    -174     180       5
     162     168    -174     180       6     162     168     174     207       7
     162     168    -174     207       8     162     168    -174     207       9
     162     168    -174     207       6     156     162     168     174       2
     147     156     162     165       3     147     156     162     168      19
     147     156    -162     168      20     147     156    -162     168      21
     147     156    -162     168       6     138     129    -126     156       3
     138     147     156     162      10     129     126    -156     147       3
     129     126     156     162       3     129     138    -147     156      44
     129     138    -147     156      45     129     138    -147     156      46
     126     129    -138     147      10     126     156    -147     138      10
     126     156     162     165       3     126     156     162     168      29
     126     156    -162     168      30     126     156    -162     168      31
     126     156    -162     168       6     210     207     213     219       2
     207     213     219     225       1     207     213    -219     225       4
     207     213    -219     225       5     207     213    -219     225       6
     207     213     219     249       7     207     213    -219     249       8
     207     213    -219     249       9     207     213    -219     249       6
     189     180     174     207      47     189     180    -174     207      48
     189     180    -174     207      49     189     180    -174     207      50
     180     174     207     210       3     180     174     207     213      19
     180     174    -207     213      20     180     174    -207     213      21
     180     174    -207     213       6     180     189     198     201      51
     180     189    -198     201      52     180     189     198     204      51
     180     189    -198     204      52     174     180     189     198      53
     174     180    -189     198      54     174     180    -189     198      55
     174     180    -189     198      56     174     207     213     219       2
     168     174     180     189      57     168     174    -180     189      58
     168     174    -180     189      49     168     174    -180     189      59
     168     174     207     210       3     168     174     207     213      29
     168     174    -207     213      30     168     174    -207     213      31
     168     174    -207     213       6     252     249     255     261       2
     249     255     261     270       7     249     255    -261     270       8
     249     255    -261     270       9     249     255    -261     270       6
     243     225     219     249      60     243     225    -219     249      61
     243     225    -219     249      62     243     225    -219     249      63
     231     225     219     249      65     231     225    -219     249      66
     231     225    -219     249      67     231     225    -219     249      68
     225     219     249     252       3     225     219     249     255      19
     225     219    -249     255      20     225     219    -249     255      21
     225     219    -249     255       6     219     249     255     261       2
     213     219     225     231      77     213     219    -225     231      78
     213     219    -225     231      67     213     219    -225     231      79
     213     219     225     243      80     213     219    -225     243      81
     213     219    -225     243      62     213     219    -225     243      82
     213     219     249     252       3     213     219     249     255      29
     213     219    -249     255      30     213     219    -249     255      31
     213     219    -249     255       6     273     270     276     282       2
     270     276     282     288       1     270     276    -282     288       4
     270     276    -282     288       5     270     276    -282     288       6
     270     276     282     312       7     270     276    -282     312       8
     270     276    -282     312       9     270     276    -282     312       6
     261     270     276     282       2     255     261     270     273       3
     255     261     270     276      29     255     261    -270     276      30
     255     261    -270     276      31     255     261    -270     276       6
     315     312     318     324       2     312     318     324     330       1
     312     318    -324     330       4     312     318    -324     330       5
     312     318    -324     330       6     312     318     324     384       7
     312     318    -324     384       8     312     318    -324     384       9
     312     318    -324     384       6     306     288     282     312      60
     306     288    -282     312      61     306     288    -282     312      62
     306     288    -282     312      63     294     288     282     312      65
     294     288    -282     312      66     294     288    -282     312      67
     294     288    -282     312      68     288     282     312     315       3
     288     282     312     318      19     288     282    -312     318      20
     288     282    -312     318      21     288     282    -312     318       6
     282     312     318     324       2     276     282     288     294      77
     276     282    -288     294      78     276     282    -288     294      67
     276     282    -288     294      79     276     282     288     306      80
     276     282    -288     306      81     276     282    -288     306      62
     276     282    -288     306      82     276     282     312     315       3
     276     282     312     318      29     276     282    -312     318      30
     276     282    -312     318      31     276     282    -312     318       6
     387     384     390     396       2     384     390     396     405       7
     384     390    -396     405       8     384     390    -396     405       9
     384     390    -396     405       6     363     357     354     381      11
     363     369    -375     381      11     357     354     381     375      83
     357     363    -369     375      11     354     357     363     369      11
     354     381    -375     369      84     348     342    -339     381      86
     348     354     357     363      11     348     354     381     375      83
     342     339    -381     354      88     342     339     381     375      88
     342     348     354     357      85     342     348    -354     381      85
     339     330     324     384      89     339     330    -324     384      90
     339     330    -324     384      91     339     330    -324     384      92
     339     342    -348     354      87     339     381    -354     348      83
     339     381     354     357      83     339     381     375     369      84
     330     324     384     387       3     330     324     384     390      19
     330     324    -384     390      20     330     324    -384     390      21
     330     324    -384     390       6     330     339     342     348      86
     330     339     381     354      88     330     339     381     375      88
     324     330     339     342       7     324     330    -339     342       3
     324     330    -339     342      13     324     330    -339     342       6
     324     330     339     381      93     324     330    -339     381      94
     324     330    -339     381      95     324     330    -339     381      96
     324     384     390     396       2     318     324     330     339      97
     318     324    -330     339      98     318     324    -330     339      91
     318     324    -330     339      99     318     324     384     387       3
     318     324     384     390      29     318     324    -384     390      30
     318     324    -384     390      31     318     324    -384     390       6
     390     396     405     408       3     390     396     405     411       3
      12      27     -21     -24     100      33      90     -84     -87     100
      57      72     -63     -66     101      51      78     -48     -39     101
      96     126    -120    -123     100     102     114    -111    -117     100
     156     168    -162    -165     100     120     129    -126    -156     102
     174     213    -207    -210     100     189     201    -198    -204     100
     219     255    -249    -252     100     261     276    -270    -273     100
     282     318    -312    -315     100     324     390    -384    -387     100
     339     354    -381    -375     103     348     357    -354    -381     103
     381     330    -339    -342     101     396     408    -405    -411     100
%FLAG EXCLUDED_ATOMS_LIST                                                       
%FORMAT(10I8)                                                                   
       2       3       4       5       6       7       8       9      10       3
       4       5       6       7       8       4       5       6       7       8
       5       6       7       8       6       7       8       9      10      11
      12       7       8       9      10       8       9      10       9      10
      11      12      13      14      29      10      11      12      11      12
      13      14      15      16      17      29      30      31      12      13
      14      29      13      14      15      16      17      18      27      29
      30      31      32      33      14      15      16      17      29      30
      31      15      16      17      18      19      20      25      27      28
      29      30      31      16      17      18      27      29      17      18
      27      29      18      19      20      21      22      25      26      27
      28      29      19      20      21      22      23      25      27      28
      20      21      22      27      21      22      23      24      25      26
      27      22      23      25      23      24      25      26      27      28
      24      25      26      27      25      26      27      28      27      28
      28       0      30      31      32      33      34      35      41      31
      32      33      32      33      34      35      36      37      38      41
      42      43      33      34      35      41      34      35      36      37
      38      39      40      41      42      43      44      53      35      36
      37      38      41      42      43      36      37      38      39      40
      41      42      43      37      38      39      40      41      38      39
      40      41      39      40      41      40       0      42      43      44
      45      46      47      50      53      54      55      43      44      53
      44      45      46      47      48      49      50      51      52      53
      54      55      56      57      45      46      47      48      49      50
      51      52      53      54      55      46      47      48      49      50
      53      47      48      49      50      53      48      49      50      51
      52      53      54      55      49      50      51      52      53      50
      51      52      53      51      52      53      54      55      56      57
      52      53      54      55      53      54      55      54      55      56
      57      58      59      55      56      57      56      57      58      59
      60      61      70      57      58      59      58      59      60      61
      62      63      64      70      71      72      59      60      61      70
      60      61      62      63      64      65      66      67      70      71
      72      73      74      61      62      63      64      70      71      72
      62      63      64      65      66      67      68      69      70      71
      72      63      64      65      66      67      70      64      65      66
      67      70      65      66      67      68      69      70      66      67
      68      69      67      68      69      68      69      69       0      71
      72      73      74      75      76      84      72      73      74      73
      74      75      76      77      78      82      84      85      86      74
      75      76      84      75      76      77      78      79      80      81
      82      83      84      85      86      87      88      76      77      78
      82      84      85      86      77      78      79      80      81      82
      83      84      85      86      78      79      80      81      82      83
      84      79      80      81      82      83      84      80      81      82
      81      82      82      83      84       0      85      86      87      88
      89      90      91      86      87      88      87      88      89      90
      91      92      93      88      89      90      91      89      90      91
      92      93      94      95      90      91      92      93      91      92
      93      92      93      94      95      96      97     105      93      94
      95      94      95      96      97      98      99     103     105     106
     107      95      96      97     105      96      97      98      99     100
     101     102     103     104     105     106     107     108     109      97
      98      99     103     105     106     107      98      99     100     101
     102     103     104     105     106     107      99     100     101     102
     103     104     105     100     101     102     103     104     105     101
     102     103     102     103     103     104     105       0     106     107
     108     109     110     111     129     107     108     109     108     109
     110     111     112     113     114     129     130     131     109     110
     111     129     110     111     112     113     114     115     128     129
     130     131     132     133     111     112     113     114     129     130
     131     112     113     114     115     116     117     119     126     128
     129     130     131     113     114     115     128     129     114     115
     128     129     115     116     117     118     119     120     124     126
     127     128     129     116     117     118     119     120     126     128
     117     118     119     128     118     119     120     121     122     126
     128     119     120     128     120     121     122     123     124     126
     127     128     121     122     123     124     125     126     128     122
     123     124     128     123     124     125     126     127     128     124
     125     126     125     126     127     128     126     127     128     127
     128     128       0     130     131     132     133     134     135     136
     131     132     133     132     133     134     135     136     137     138
     133     134     135     136     134     135     136     137     138     135
     136     137     138     136     137     138     137     138     138       0
       0       0     142     143     143       0     145     146     146       0
     148     149     149       0     151     152     152       0     154     155
     155       0     157     158     158       0     160     161     161       0
     163     164     164       0     166     167     167       0     169     170
     170       0     172     173     173       0     175     176     176       0
     178     179     179       0     181     182     182       0     184     185
     185       0     187     188     188       0     190     191     191       0
     193     194     194       0     196     197     197       0     199     200
     200       0     202     203     203       0     205     206     206       0
     208     209     209       0     211     212     212       0     214     215
     215       0     217     218     218       0     220     221     221       0
     223     224     224       0     226     227     227       0     229     230
     230       0     232     233     233       0     235     236     236       0
     238     239     239       0     241     242     242       0     244     245
     245       0     247     248     248       0     250     251     251       0
     253     254     254       0     256     257     257       0     259     260
     260       0     262     263     263       0     265     266     266       0
     268     269     269       0     271     272     272       0     274     275
     275       0     277     278     278       0     280     281     281       0
     283     284     284       0     286     287     287       0     289     290
     290       0     292     293     293       0     295     296     296       0
     298     299     299       0     301     302     302       0     304     305
     305       0     307     308     308       0     310     311     311       0
     313     314     314       0     316     317     317       0     319     320
     320       0     322     323     323       0     325     326     326       0
     328     329     329       0     331     332     332       0     334     335
     335       0     337     338     338       0     340     341     341       0
     343     344     344       0     346     347     347       0     349     350
     350       0     352     353     353       0     355     356     356       0
     358     359     359       0     361     362     362       0     364     365
     365       0     367     368     368       0     370     371     371       0
     373     374     374       0     376     377     377       0     379     380
     380       0     382     383     383       0     385     386     386       0
     388     389     389       0     391     392     392       0     394     395
     395       0     397     398     398       0     400     401     401       0
     403     404     404       0     406     407     407       0     409     410
     410       0     412     413     413       0     415     416     416       0
     418     419     419       0     421     422     422       0     424     425
     425       0     427     428     428       0     430     431     431       0
     433     434     434       0     436     437     437       0     439     440
     440       0     442     443     443       0     445     446     446       0
     448     449     449       0     451     452     452       0     454     455
     455       0     457     458     458       0     460     461     461       0
     463     464     464       0     466     467     467       0     469     470
     470       0     472     473     473       0     475     476     476       0
     478     479     479       0     481     482     482       0     484     485
     485       0     487     488     488       0     490     491     491       0
     493     494     494       0     496     497     497       0     499     500
     500       0     502     503     503       0     505     506     506       0
     508     509     509       0     511     512     512       0     514     515
     515       0     517     518     518       0     520     521     521       0
     523     524     524       0     526     527     527       0     529     530
     530       0     532     533     533       0     535     536     536       0
     538     539     539       0     541     542     542       0     544     545
     545       0     547     548     548       0     550     551     551       0
     553     554     554       0     556     557     557       0     559     560
     560       0     562     563     563       0     565     566     566       0
     568     569     569       0     571     572     572       0     574     575
     575       0     577     578     578       0     580     581     581       0
     583     584     584       0     586     587     587       0     589     590
     590       0     592     593     593       0     595     596     596       0
     598     599     599       0     601     602     602       0     604     605
     605       0     607     608     608       0     610     611     611       0
     613     614     614       0     616     617     617       0     619     620
     620       0     622     623     623       0     625     626     626       0
     628     629     629       0     631     632     632       0     634     635
     635       0     637     638     638       0     640     641     641       0
     643     644     644       0     646     647     647       0     649     650
     650       0     652     653     653       0     655     656     656       0
     658     659     659       0     661     662     662       0     664     665
     665       0     667     668     668       0     670     671     671       0
     673     674     674       0     676     677     677       0     679     680
     680       0     682     683     683       0     685     686     686       0
     688     689     689       0     691     692     692       0     694     695
     695       0     697     698     698       0     700     701     701       0
     703     704     704       0     706     707     707       0     709     710
     710       0     712     713     713       0     715     716     716       0
     718     719     719       0     721     722     722       0     724     725
     725       0     727     728     728       0     730     731     731       0
     733     734     734       0     736     737     737       0     739     740
     740       0     742     743     743       0     745     746     746       0
     748     749     749       0     751     752     752       0     754     755
     755       0     757     758     758       0     760     761     761       0
     763     764     764       0     766     767     767       0     769     770
     770       0     772     773     773       0     775     776     776       0
     778     779     779       0     781     782     782       0     784     785
     785       0     787     788     788       0     790     791     791       0
     793     794     794       0     796     797     797       0     799     800
     800       0     802     803     803       0     805     806     806       0
     808     809     809       0     811     812     812       0     814     815
     815       0     817     818     818       0     820     821     821       0
     823     824     824       0     826     827     827       0     829     830
     830       0     832     833     833       0     835     836     836       0
     838     839     839       0     841     842     842       0     844     845
     845       0     847     848     848       0     850     851     851       0
     853     854     854       0     856     857     857       0     859     860
     860       0     862     863     863       0     865     866     866       0
     868     869     869       0     871     872     872       0     874     875
     875       0     877     878     878       0     880     881     881       0
     883     884     884       0     886     887     887       0     889     890
     890       0     892     893     893       0     895     896     896       0
     898     899     899       0     901     902     902       0     904     905
     905       0     907     908     908       0     910     911     911       0
     913     914     914       0     916     917     917       0     919     920
     920       0     922     923     923       0     925     926     926       0
     928     929     929       0     931     932     932       0     934     935
     935       0     937     938     938       0     940     941     941       0
     943     944     944       0     946     947     947       0     949     950
     950       0     952     953     953       0     955     956     956       0
     958     959     959       0     961     962     962       0     964     965
     965       0     967     968     968       0     970     971     971       0
     973     974     974       0     976     977     977       0     979     980
     980       0     982     983     983       0     985     986     986       0
     988     989     989       0     991     992     992       0     994     995
     995       0     997     998     998       0    1000    1001    1001       0
    1003    1004    1004       0    1006    1007    1007       0    1009    1010
    1010       0    1012    1013    1013       0    1015    1016    1016       0
    1018    1019    1019       0    1021    1022    1022       0    1024    1025
    1025       0    1027    1028    1028       0    1030    1031    1031       0
    1033    1034    1034       0    1036    1037    1037       0    1039    1040
    1040       0    1042    1043    1043       0    1045    1046    1046       0
    1048    1049    1049       0    1051    1052    1052       0    1054    1055
    1055       0    1057    1058    1058       0    1060    1061    1061       0
    1063    1064    1064       0    1066    1067    1067       0    1069    1070
    1070       0    1072    1073    1073       0    1075    1076    1076       0
    1078    1079    1079       0    1081    1082    1082       0    1084    1085
    1085       0    1087    1088    1088       0    1090    1091    1091       0
    1093    1094    1094       0    1096    1097    1097       0    1099    1100
    1100       0    1102    1103    1103       0    1105    1106    1106       0
    1108    1109    1109       0    1111    1112    1112       0    1114    1115
    1115       0    1117    1118    1118       0    1120    1121    1121       0
    1123    1124    1124       0    1126    1127    1127       0    1129    1130
    1130       0    1132    1133    1133       0    1135    1136    1136       0
    1138    1139    1139       0    1141    1142    1142       0    1144    1145
    1145       0    1147    1148    1148       0    1150    1151    1151       0
    1153    1154    1154       0    1156    1157    1157       0    1159    1160
    1160       0    1162    1163    1163       0    1165    1166    1166       0
    1168    1169    1169       0    1171    1172    1172       0    1174    1175
    1175       0    1177    1178    1178       0    1180    1181    1181       0
    1183    1184    1184       0    1186    1187    1187       0    1189    1190
    1190       0    1192    1193    1193       0    1195    1196    1196       0
    1198    1199    1199       0    1201    1202    1202       0    1204    1205
    1205       0    1207    1208    1208       0    1210    1211    1211       0
    1213    1214    1214       0    1216    1217    1217       0    1219    1220
    1220       0    1222    1223    1223       0    1225    1226    1226       0
    1228    1229    1229       0    1231    1232    1232       0    1234    1235
    1235       0    1237    1238    1238       0    1240    1241    1241       0
    1243    1244    1244       0    1246    1247    1247       0    1249    1250
    1250       0    1252    1253    1253       0    1255    1256    1256       0
    1258    1259    1259       0    1261    1262    1262       0    1264    1265
    1265       0    1267    1268    1268       0    1270    1271    1271       0
    1273    1274    1274       0    1276    1277    1277       0    1279    1280
    1280       0    1282    1283    1283       0    1285    1286    1286       0
    1288    1289    1289       0    1291    1292    1292       0    1294    1295
    1295       0    1297    1298    1298       0    1300    1301    1301       0
    1303    1304    1304       0    1306    1307    1307       0    1309    1310
    1310       0    1312    1313    1313       0    1315    1316    1316       0
    1318    1319    1319       0    1321    1322    1322       0    1324    1325
    1325       0    1327    1328    1328       0    1330    1331    1331       0
    1333    1334    1334       0    1336    1337    1337       0    1339    1340
    1340       0    1342    1343    1343       0    1345    1346    1346       0
    1348    1349    1349       0    1351    1352    1352       0    1354    1355
    1355       0    1357    1358    1358       0    1360    1361    1361       0
    1363    1364    1364       0    1366    1367    1367       0    1369    1370
    1370       0    1372    1373    1373       0    1375    1376    1376       0
    1378    1379    1379       0    1381    1382    1382       0    1384    1385
    1385       0    1387    1388    1388       0    1390    1391    1391       0
    1393    1394    1394       0    1396    1397    1397       0    1399    1400
    1400       0    1402    1403    1403       0    1405    1406    1406       0
    1408    1409    1409       0    1411    1412    1412       0    1414    1415
    1415       0    1417    1418    1418       0    1420    1421    1421       0
    1423    1424    1424       0    1426    1427    1427       0    1429    1430
    1430       0    1432    1433    1433       0    1435    1436    1436       0
    1438    1439    1439       0    1441    1442    1442       0    1444    1445
    1445       0    1447    1448    1448       0    1450    1451    1451       0
    1453    1454    1454       0    1456    1457    1457       0    1459    1460
    1460       0    1462    1463    1463       0    1465    1466    1466       0
    1468    1469    1469       0    1471    1472    1472       0    1474    1475
    1475       0    1477    1478    1478       0    1480    1481    1481       0
    1483    1484    1484       0    1486    1487    1487       0    1489    1490
    1490       0    1492    1493    1493       0    1495    1496    1496       0
    1498    1499    1499       0    1501    1502    1502       0    1504    1505
    1505       0    1507    1508    1508       0    1510    1511    1511       0
    1513    1514    1514       0    1516    1517    1517       0    1519    1520
    1520       0    1522    1523    1523       0    1525    1526    1526       0
    1528    1529    1529       0    1531    1532    1532       0    1534    1535
    1535       0    1537    1538    1538       0    1540    1541    1541       0
    1543    1544    1544       0    1546    1547    1547       0    1549    1550
    1550       0    1552    1553    1553       0    1555    1556    1556       0
    1558    1559    1559       0    1561    1562    1562       0    1564    1565
    1565       0    1567    1568    1568       0    1570    1571    1571       0
    1573    1574    1574       0    1576    1577    1577       0    1579    1580
    1580       0    1582    1583    1583       0    1585    1586    1586       0
    1588    1589    1589       0    1591    1592    1592       0    1594    1595
    1595       0    1597    1598    1598       0    1600    1601    1601       0
    1603    1604    1604       0    1606    1607    1607       0    1609    1610
    1610       0    1612    1613    1613       0    1615    1616    1616       0
    1618    1619    1619       0    1621    1622    1622       0    1624    1625
    1625       0    1627    1628    1628       0    1630    1631    1631       0
    1633    1634    1634       0    1636    1637    1637       0    1639    1640
    1640       0    1642    1643    1643       0    1645    1646    1646       0
    1648    1649    1649       0    1651    1652    1652       0    1654    1655
    1655       0    1657    1658    1658       0    1660    1661    1661       0
    1663    1664    1664       0    1666    1667    1667       0    1669    1670
    1670       0    1672    1673    1673       0    1675    1676    1676       0
    1678    1679    1679       0    1681    1682    1682       0    1684    1685
    1685       0    1687    1688    1688       0    1690    1691    1691       0
    1693    1694    1694       0    1696    1697    1697       0    1699    1700
    1700       0    1702    1703    1703       0    1705    1706    1706       0
    1708    1709    1709       0    1711    1712    1712       0    1714    1715
    1715       0    1717    1718    1718       0    1720    1721    1721       0
    1723    1724    1724       0    1726    1727    1727       0    1729    1730
    1730       0    1732    1733    1733       0    1735    1736    1736       0
    1738    1739    1739       0    1741    1742    1742       0    1744    1745
    1745       0    1747    1748    1748       0    1750    1751    1751       0
    1753    1754    1754       0    1756    1757    1757       0    1759    1760
    1760       0    1762    1763    1763       0    1765    1766    1766       0
    1768    1769    1769       0    1771    1772    1772       0    1774    1775
    1775       0    1777    1778    1778       0    1780    1781    1781       0
    1783    1784    1784       0    1786    1787    1787       0    1789    1790
    1790       0    1792    1793    1793       0    1795    1796    1796       0
    1798    1799    1799       0    1801    1802    1802       0    1804    1805
    1805       0    1807    1808    1808       0    1810    1811    1811       0
    1813    1814    1814       0    1816    1817    1817       0    1819    1820
    1820       0    1822    1823    1823       0    1825    1826    1826       0
    1828    1829    1829       0    1831    1832    1832       0    1834    1835
    1835       0    1837    1838    1838       0    1840    1841    1841       0
    1843    1844    1844       0    1846    1847    1847       0    1849    1850
    1850       0    1852    1853    1853       0    1855    1856    1856       0
    1858    1859    1859       0    1861    1862    1862       0    1864    1865
    1865       0    1867    1868    1868       0    1870    1871    1871       0
    1873    1874    1874       0    1876    1877    1877       0    1879    1880
    1880       0    1882    1883    1883       0    1885    1886    1886       0
    1888    1889    1889       0    1891    1892    1892       0    1894    1895
    1895       0    1897    1898    1898       0    1900    1901    1901       0
    1903    1904    1904       0    1906    1907    1907       0    1909    1910
    1910       0    1912    1913    1913       0    1915    1916    1916       0
    1918    1919    1919       0    1921    1922    1922       0    1924    1925
    1925       0    1927    1928    1928       0    1930    1931    1931       0
    1933    1934    1934       0    1936    1937    1937       0    1939    1940
    1940       0    1942    1943    1943       0    1945    1946    1946       0
    1948    1949    1949       0    1951    1952    1952       0    1954    1955
    1955       0    1957    1958    1958       0    1960    1961    1961       0
    1963    1964    1964       0    1966    1967    1967       0    1969    1970
    1970       0    1972    1973    1973       0    1975    1976    1976       0
    1978    1979    1979       0    1981    1982    1982       0    1984    1985
    1985       0    1987    1988    1988       0    1990    1991    1991       0
    1993    1994    1994       0    1996    1997    1997       0    1999    2000
    2000       0    2002    2003    2003       0    2005    2006    2006       0
    2008    2009    2009       0    2011    2012    2012       0    2014    2015
    2015       0    2017    2018    2018       0    2020    2021    2021       0
    2023    2024    2024       0    2026    2027    2027       0    2029    2030
    2030       0    2032    2033    2033       0    2035    2036    2036       0
    2038    2039    2039       0    2041    2042    2042       0    2044    2045
    2045       0    2047    2048    2048       0    2050    2051    2051       0
    2053    2054    2054       0    2056    2057    2057       0    2059    2060
    2060       0    2062    2063    2063       0    2065    2066    2066       0
    2068    2069    2069       0    2071    2072    2072       0    2074    2075
    2075       0    2077    2078    2078       0    2080    2081    2081       0
    2083    2084    2084       0    2086    2087    2087       0    2089    2090
    2090       0    2092    2093    2093       0    2095    2096    2096       0
    2098    2099    2099       0    2101    2102    2102       0    2104    2105
    2105       0    2107    2108    2108       0    2110    2111    2111       0
    2113    2114    2114       0    2116    2117    2117       0    2119    2120
    2120       0    2122    2123    2123       0    2125    2126    2126       0
    2128    2129    2129       0    2131    2132    2132       0    2134    2135
    2135       0    2137    2138    2138       0    2140    2141    2141       0
    2143    2144    2144       0    2146    2147    2147       0    2149    2150
    2150       0    2152    2153    2153       0    2155    2156    2156       0
    2158    2159    2159       0    2161    2162    2162       0    2164    2165
    2165       0    2167    2168    2168       0    2170    2171    2171       0
    2173    2174    2174       0    2176    2177    2177       0    2179    2180
    2180       0    2182    2183    2183       0    2185    2186    2186       0
    2188    2189    2189       0    2191    2192    2192       0    2194    2195
    2195       0    2197    2198    2198       0    2200    2201    2201       0
    2203    2204    2204       0    2206    2207    2207       0    2209    2210
    2210       0    2212    2213    2213       0    2215    2216    2216       0
    2218    2219    2219       0    2221    2222    2222       0    2224    2225
    2225       0    2227    2228    2228       0    2230    2231    2231       0
    2233    2234    2234       0    2236    2237    2237       0    2239    2240
    2240       0    2242    2243    2243       0    2245    2246    2246       0
    2248    2249    2249       0    2251    2252    2252       0    2254    2255
    2255       0    2257    2258    2258       0    2260    2261    2261       0
    2263    2264    2264       0    2266    2267    2267       0    2269    2270
    2270       0    2272    2273    2273       0    2275    2276    2276       0
    2278    2279    2279       0    2281    2282    2282       0    2284    2285
    2285       0    2287    2288    2288       0    2290    2291    2291       0
    2293    2294    2294       0    2296    2297    2297       0    2299    2300
    2300       0    2302    2303    2303       0    2305    2306    2306       0
    2308    2309    2309       0    2311    2312    2312       0    2314    2315
    2315       0    2317    2318    2318       0    2320    2321    2321       0
    2323    2324    2324       0    2326    2327    2327       0    2329    2330
    2330       0    2332    2333    2333       0    2335    2336    2336       0
    2338    2339    2339       0    2341    2342    2342       0    2344    2345
    2345       0    2347    2348    2348       0    2350    2351    2351       0
    2353    2354    2354       0    2356    2357    2357       0    2359    2360
    2360       0    2362    2363    2363       0    2365    2366    2366       0
    2368    2369    2369       0    2371    2372    2372       0    2374    2375
    2375       0    2377    2378    2378       0    2380    2381    2381       0
    2383    2384    2384       0    2386    2387    2387       0    2389    2390
    2390       0    2392    2393    2393       0    2395    2396    2396       0
    2398    2399    2399       0    2401    2402    2402       0    2404    2405
    2405       0    2407    2408    2408       0    2410    2411    2411       0
    2413    2414    2414       0    2416    2417    2417       0    2419    2420
    2420       0    2422    2423    2423       0    2425    2426    2426       0
    2428    2429    2429       0    2431    2432    2432       0    2434    2435
    2435       0    2437    2438    2438       0    2440    2441    2441       0
    2443    2444    2444       0    2446    2447    2447       0    2449    2450
    2450       0    2452    2453    2453       0    2455    2456    2456       0
    2458    2459    2459       0    2461    2462    2462       0    2464    2465
    2465       0    2467    2468    2468       0    2470    2471    2471       0
    2473    2474    2474       0    2476    2477    2477       0    2479    2480
    2480       0    2482    2483    2483       0    2485    2486    2486       0
    2488    2489    2489       0    2491    2492    2492       0    2494    2495
    2495       0    2497    2498    2498       0    2500    2501    2501       0
    2503    2504    2504       0    2506    2507    2507       0    2509    2510
    2510       0    2512    2513    2513       0    2515    2516    2516       0
    2518    2519    2519       0    2521    2522    2522       0    2524    2525
    2525       0    2527    2528    2528       0    2530    2531    2531       0
    2533    2534    2534       0    2536    2537    2537       0    2539    2540
    2540       0    2542    2543    2543       0    2545    2546    2546       0
    2548    2549    2549       0    2551    2552    2552       0    2554    2555
    2555       0    2557    2558    2558       0    2560    2561    2561       0
    2563    2564    2564       0    2566    2567    2567       0    2569    2570
    2570       0    2572    2573    2573       0    2575    2576    2576       0
    2578    2579    2579       0    2581    2582    2582       0    2584    2585
    2585       0    2587    2588    2588       0    2590    2591    2591       0
    2593    2594    2594       0    2596    2597    2597       0    2599    2600
    2600       0    2602    2603    2603       0    2605    2606    2606       0
    2608    2609    2609       0    2611    2612    2612       0    2614    2615
    2615       0    2617    2618    2618       0    2620    2621    2621       0
    2623    2624    2624       0    2626    2627    2627       0    2629    2630
    2630       0    2632    2633    2633       0    2635    2636    2636       0
    2638    2639    2639       0    2641    2642    2642       0    2644    2645
    2645       0    2647    2648    2648       0    2650    2651    2651       0
    2653    2654    2654       0    2656    2657    2657       0    2659    2660
    2660       0    2662    2663    2663       0    2665    2666    2666       0
    2668    2669    2669       0    2671    2672    2672       0    2674    2675
    2675       0    2677    2678    2678       0    2680    2681    2681       0
    2683    2684    2684       0    2686    2687    2687       0    2689    2690
    2690       0    2692    2693    2693       0    2695    2696    2696       0
    2698    2699    2699       0    2701    2702    2702       0    2704    2705
    2705       0    2707    2708    2708       0    2710    2711    2711       0
    2713    2714    2714       0    2716    2717    2717       0    2719    2720
    2720       0    2722    2723    2723       0    2725    2726    2726       0
    2728    2729    2729       0    2731    2732    2732       0    2734    2735
    2735       0    2737    2738    2738       0    2740    2741    2741       0
    2743    2744    2744       0    2746    2747    2747       0    2749    2750
    2750       0    2752    2753    2753       0    2755    2756    2756       0
    2758    2759    2759       0    2761    2762    2762       0    2764    2765
    2765       0    2767    2768    2768       0    2770    2771    2771       0
    2773    2774    2774       0    2776    2777    2777       0    2779    2780
    2780       0    2782    2783    2783       0    2785    2786    2786       0
    2788    2789    2789       0    2791    2792    2792       0    2794    2795
    2795       0    2797    2798    2798       0    2800    2801    2801       0
    2803    2804    2804       0    2806    2807    2807       0    2809    2810
    2810       0    2812    2813    2813       0    2815    2816    2816       0
    2818    2819    2819       0    2821    2822    2822       0    2824    2825
    2825       0    2827    2828    2828       0    2830    2831    2831       0
    2833    2834    2834       0    2836    2837    2837       0    2839    2840
    2840       0    2842    2843    2843       0    2845    2846    2846       0
    2848    2849    2849       0    2851    2852    2852       0    2854    2855
    2855       0    2857    2858    2858       0    2860    2861    2861       0
    2863    2864    2864       0    2866    2867    2867       0    2869    2870
    2870       0    2872    2873    2873       0    2875    2876    2876       0
    2878    2879    2879       0    2881    2882    2882       0    2884    2885
    2885       0    2887    2888    2888       0    2890    2891    2891       0
    2893    2894    2894       0    2896    2897    2897       0    2899    2900
    2900       0    2902    2903    2903       0    2905    2906    2906       0
    2908    2909    2909       0    2911    2912    2912       0    2914    2915
    2915       0    2917    2918    2918       0    2920    2921    2921       0
    2923    2924    2924       0    2926    2927    2927       0    2929    2930
    2930       0    2932    2933    2933       0    2935    2936    2936       0
    2938    2939    2939       0    2941    2942    2942       0    2944    2945
    2945       0    2947    2948    2948       0    2950    2951    2951       0
    2953    2954    2954       0    2956    2957    2957       0    2959    2960
    2960       0    2962    2963    2963       0    2965    2966    2966       0
    2968    2969    2969       0    2971    2972    2972       0    2974    2975
    2975       0    2977    2978    2978       0    2980    2981    2981       0
    2983    2984    2984       0    2986    2987    2987       0    2989    2990
    2990       0    2992    2993    2993       0    2995    2996    2996       0
    2998    2999    2999       0    3001    3002    3002       0    3004    3005
    3005       0    3007    3008    3008       0    3010    3011    3011       0
    3013    3014    3014       0    3016    3017    3017       0    3019    3020
    3020       0    3022    3023    3023       0    3025    3026    3026       0
    3028    3029    3029       0    3031    3032    3032       0    3034    3035
    3035       0    3037    3038    3038       0    3040    3041    3041       0
    3043    3044    3044       0    3046    3047    3047       0    3049    3050
    3050       0    3052    3053    3053       0    3055    3056    3056       0
    3058    3059    3059       0    3061    3062    3062       0    3064    3065
    3065       0    3067    3068    3068       0    3070    3071    3071       0
    3073    3074    3074       0    3076    3077    3077       0    3079    3080
    3080       0    3082    3083    3083       0    3085    3086    3086       0
    3088    3089    3089       0    3091    3092    3092       0    3094    3095
    3095       0    3097    3098    3098       0    3100    3101    3101       0
    3103    3104    3104       0    3106    3107    3107       0    3109    3110
    3110       0    3112    3113    3113       0    3115    3116    3116       0
    3118    3119    3119       0    3121    3122    3122       0    3124    3125
    3125       0    3127    3128    3128       0    3130    3131    3131       0
    3133    3134    3134       0    3136    3137    3137       0    3139    3140
    3140       0    3142    3143    3143       0    3145    3146    3146       0
    3148    3149    3149       0    3151    3152    3152       0    3154    3155
    3155       0    3157    3158    3158       0    3160    3161    3161       0
    3163    3164    3164       0    3166    3167    3167       0    3169    3170
    3170       0    3172    3173    3173       0    3175    3176    3176       0
    3178    3179    3179       0    3181    3182    3182       0    3184    3185
    3185       0    3187    3188    3188       0    3190    3191    3191       0
    3193    3194    3194       0    3196    3197    3197       0    3199    3200
    3200       0    3202    3203    3203       0    3205    3206    3206       0
    3208    3209    3209       0    3211    3212    3212       0    3214    3215
    3215       0    3217    3218    3218       0    3220    3221    3221       0
    3223    3224    3224       0    3226    3227    3227       0    3229    3230
    3230       0    3232    3233    3233       0    3235    3236    3236       0
    3238    3239    3239       0    3241    3242    3242       0    3244    3245
    3245       0    3247    3248    3248       0    3250    3251    3251       0
    3253    3254    3254       0    3256    3257    3257       0    3259    3260
    3260       0    3262    3263    3263       0    3265    3266    3266       0
    3268    3269    3269       0    3271    3272    3272       0    3274    3275
    3275       0    3277    3278    3278       0    3280    3281    3281       0
    3283    3284    3284       0    3286    3287    3287       0    3289    3290
    3290       0    3292    3293    3293       0    3295    3296    3296       0
    3298    3299    3299       0    3301    3302    3302       0    3304    3305
    3305       0    3307    3308    3308       0    3310    3311    3311       0
    3313    3314    3314       0    3316    3317    3317       0    3319    3320
    3320       0    3322    3323    3323       0    3325    3326    3326       0
    3328    3329    3329       0    3331    3332    3332       0    3334    3335
    3335       0    3337    3338    3338       0    3340    3341    3341       0
    3343    3344    3344       0    3346    3347    3347       0    3349    3350
    3350       0    3352    3353    3353       0    3355    3356    3356       0
    3358    3359    3359       0    3361    3362    3362       0    3364    3365
    3365       0    3367    3368    3368       0    3370    3371    3371       0
    3373    3374    3374       0    3376    3377    3377       0    3379    3380
    3380       0    3382    3383    3383       0    3385    3386    3386       0
    3388    3389    3389       0    3391    3392    3392       0    3394    3395
    3395       0    3397    3398    3398       0    3400    3401    3401       0
    3403    3404    3404       0    3406    3407    3407       0    3409    3410
    3410       0    3412    3413    3413       0    3415    3416    3416       0
    3418    3419    3419       0    3421    3422    3422       0    3424    3425
    3425       0    3427    3428    3428       0    3430    3431    3431       0
    3433    3434    3434       0    3436    3437    3437       0    3439    3440
    3440       0    3442    3443    3443       0    3445    3446    3446       0
    3448    3449    3449       0    3451    3452    3452       0    3454    3455
    3455       0    3457    3458    3458       0    3460    3461    3461       0
    3463    3464    3464       0    3466    3467    3467       0    3469    3470
    3470       0    3472    3473    3473       0    3475    3476    3476       0
    3478    3479    3479       0    3481    3482    3482       0    3484    3485
    3485       0    3487    3488    3488       0    3490    3491    3491       0
    3493    3494    3494       0    3496    3497    3497       0    3499    3500
    3500       0    3502    3503    3503       0    3505    3506    3506       0
    3508    3509    3509       0    3511    3512    3512       0    3514    3515
    3515       0    3517    3518    3518       0    3520    3521    3521       0
    3523    3524    3524       0    3526    3527    3527       0    3529    3530
    3530       0    3532    3533    3533       0    3535    3536    3536       0
    3538    3539    3539       0    3541    3542    3542       0    3544    3545
    3545       0    3547    3548    3548       0    3550    3551    3551       0
    3553    3554    3554       0    3556    3557    3557       0    3559    3560
    3560       0    3562    3563    3563       0    3565    3566    3566       0
    3568    3569    3569       0    3571    3572    3572       0    3574    3575
    3575       0    3577    3578    3578       0    3580    3581    3581       0
    3583    3584    3584       0    3586    3587    3587       0    3589    3590
    3590       0    3592    3593    3593       0    3595    3596    3596       0
    3598    3599    3599       0    3601    3602    3602       0    3604    3605
    3605       0    3607    3608    3608       0    3610    3611    3611       0
    3613    3614    3614       0    3616    3617    3617       0    3619    3620
    3620       0    3622    3623    3623       0    3625    3626    3626       0
    3628    3629    3629       0    3631    3632    3632       0    3634    3635
    3635       0    3637    3638    3638       0    3640    3641    3641       0
    3643    3644    3644       0    3646    3647    3647       0    3649    3650
    3650       0    3652    3653    3653       0    3655    3656    3656       0
    3658    3659    3659       0    3661    3662    3662       0    3664    3665
    3665       0    3667    3668    3668       0    3670    3671    3671       0
    3673    3674    3674       0    3676    3677    3677       0    3679    3680
    3680       0    3682    3683    3683       0    3685    3686    3686       0
    3688    3689    3689       0    3691    3692    3692       0    3694    3695
    3695       0    3697    3698    3698       0    3700    3701    3701       0
    3703    3704    3704       0    3706    3707    3707       0    3709    3710
    3710       0    3712    3713    3713       0    3715    3716    3716       0
    3718    3719    3719       0    3721    3722    3722       0    3724    3725
    3725       0    3727    3728    3728       0    3730    3731    3731       0
    3733    3734    3734       0    3736    3737    3737       0    3739    3740
    3740       0    3742    3743    3743       0    3745    3746    3746       0
    3748    3749    3749       0    3751    3752    3752       0    3754    3755
    3755       0    3757    3758    3758       0    3760    3761    3761       0
    3763    3764    3764       0    3766    3767    3767       0    3769    3770
    3770       0    3772    3773    3773       0    3775    3776    3776       0
    3778    3779    3779       0    3781    3782    3782       0    3784    3785
    3785       0    3787    3788    3788       0    3790    3791    3791       0
    3793    3794    3794       0    3796    3797    3797       0    3799    3800
    3800       0    3802    3803    3803       0    3805    3806    3806       0
    3808    3809    3809       0    3811    3812    3812       0    3814    3815
    3815       0    3817    3818    3818       0    3820    3821    3821       0
    3823    3824    3824       0    3826    3827    3827       0    3829    3830
    3830       0    3832    3833    3833       0    3835    3836    3836       0
    3838    3839    3839       0    3841    3842    3842       0    3844    3845
    3845       0    3847    3848    3848       0    3850    3851    3851       0
    3853    3854    3854       0    3856    3857    3857       0    3859    3860
    3860       0    3862    3863    3863       0    3865    3866    3866       0
    3868    3869    3869       0    3871    3872    3872       0    3874    3875
    3875       0    3877    3878    3878       0    3880    3881    3881       0
    3883    3884    3884       0    3886    3887    3887       0    3889    3890
    3890       0    3892    3893    3893       0    3895    3896    3896       0
    3898    3899    3899       0    3901    3902    3902       0    3904    3905
    3905       0    3907    3908    3908       0    3910    3911    3911       0
    3913    3914    3914       0    3916    3917    3917       0    3919    3920
    3920       0    3922    3923    3923       0    3925    3926    3926       0
    3928    3929    3929       0    3931    3932    3932       0    3934    3935
    3935       0    3937    3938    3938       0    3940    3941    3941       0
    3943    3944    3944       0    3946    3947    3947       0    3949    3950
    3950       0    3952    3953    3953       0    3955    3956    3956       0
    3958    3959    3959       0    3961    3962    3962       0    3964    3965
    3965       0    3967    3968    3968       0    3970    3971    3971       0
    3973    3974    3974       0    3976    3977    3977       0    3979    3980
    3980       0    3982    3983    3983       0    3985    3986    3986       0
    3988    3989    3989       0    3991    3992    3992       0    3994    3995
    3995       0    3997    3998    3998       0    4000    4001    4001       0
    4003    4004    4004       0    4006    4007    4007       0    4009    4010
    4010       0    4012    4013    4013       0    4015    4016    4016       0
    4018    4019    4019       0    4021    4022    4022       0    4024    4025
    4025       0    4027    4028    4028       0    4030    4031    4031       0
    4033    4034    4034       0    4036    4037    4037       0    4039    4040
    4040       0    4042    4043    4043       0    4045    4046    4046       0
    4048    4049    4049       0    4051    4052    4052       0    4054    4055
    4055       0    4057    4058    4058       0    4060    4061    4061       0
    4063    4064    4064       0    4066    4067    4067       0    4069    4070
    4070       0    4072    4073    4073       0    4075    4076    4076       0
    4078    4079    4079       0    4081    4082    4082       0    4084    4085
    4085       0    4087    4088    4088       0    4090    4091    4091       0
    4093    4094    4094       0    4096    4097    4097       0    4099    4100
    4100       0    4102    4103    4103       0    4105    4106    4106       0
    4108    4109    4109       0    4111    4112    4112       0    4114    4115
    4115       0    4117    4118    4118       0    4120    4121    4121       0
    4123    4124    4124       0    4126    4127    4127       0    4129    4130
    4130       0    4132    4133    4133       0    4135    4136    4136       0
    4138    4139    4139       0    4141    4142    4142       0    4144    4145
    4145       0    4147    4148    4148       0    4150    4151    4151       0
    4153    4154    4154       0    4156    4157    4157       0    4159    4160
    4160       0    4162    4163    4163       0    4165    4166    4166       0
    4168    4169    4169       0    4171    4172    4172       0    4174    4175
    4175       0    4177    4178    4178       0    4180    4181    4181       0
    4183    4184    4184       0    4186    4187    4187       0    4189    4190
    4190       0    4192    4193    4193       0    4195    4196    4196       0
    4198    4199    4199       0    4201    4202    4202       0    4204    4205
    4205       0    4207    4208    4208       0    4210    4211    4211       0
    4213    4214    4214       0    4216    4217    4217       0    4219    4220
    4220       0    4222    4223    4223       0    4225    4226    4226       0
    4228    4229    4229       0    4231    4232    4232       0    4234    4235
    4235       0    4237    4238    4238       0    4240    4241    4241       0
    4243    4244    4244       0    4246    4247    4247       0    4249    4250
    4250       0    4252    4253    4253       0    4255    4256    4256       0
    4258    4259    4259       0    4261    4262    4262       0    4264    4265
    4265       0    4267    4268    4268       0    4270    4271    4271       0
    4273    4274    4274       0    4276    4277    4277       0    4279    4280
    4280       0    4282    4283    4283       0    4285    4286    4286       0
    4288    4289    4289       0    4291    4292    4292       0    4294    4295
    4295       0    4297    4298    4298       0    4300    4301    4301       0
    4303    4304    4304       0    4306    4307    4307       0    4309    4310
    4310       0    4312    4313    4313       0    4315    4316    4316       0
    4318    4319    4319       0    4321    4322    4322       0    4324    4325
    4325       0    4327    4328    4328       0    4330    4331    4331       0
    4333    4334    4334       0    4336    4337    4337       0    4339    4340
    4340       0    4342    4343    4343       0    4345    4346    4346       0
    4348    4349    4349       0    4351    4352    4352       0    4354    4355
    4355       0    4357    4358    4358       0    4360    4361    4361       0
    4363    4364    4364       0    4366    4367    4367       0    4369    4370
    4370       0    4372    4373    4373       0    4375    4376    4376       0
    4378    4379    4379       0    4381    4382    4382       0    4384    4385
    4385       0    4387    4388    4388       0    4390    4391    4391       0
    4393    4394    4394       0    4396    4397    4397       0    4399    4400
    4400       0    4402    4403    4403       0    4405    4406    4406       0
    4408    4409    4409       0    4411    4412    4412       0    4414    4415
    4415       0    4417    4418    4418       0    4420    4421    4421       0
    4423    4424    4424       0    4426    4427    4427       0    4429    4430
    4430       0    4432    4433    4433       0    4435    4436    4436       0
    4438    4439    4439       0    4441    4442    4442       0    4444    4445
    4445       0    4447    4448    4448       0    4450    4451    4451       0
    4453    4454    4454       0    4456    4457    4457       0    4459    4460
    4460       0    4462    4463    4463       0    4465    4466    4466       0
    4468    4469    4469       0    4471    4472    4472       0    4474    4475
    4475       0    4477    4478    4478       0    4480    4481    4481       0
    4483    4484    4484       0    4486    4487    4487       0    4489    4490
    4490       0    4492    4493    4493       0    4495    4496    4496       0
    4498    4499    4499       0    4501    4502    4502       0    4504    4505
    4505       0    4507    4508    4508       0    4510    4511    4511       0
    4513    4514    4514       0    4516    4517    4517       0    4519    4520
    4520       0    4522    4523    4523       0    4525    4526    4526       0
    4528    4529    4529       0    4531    4532    4532       0    4534    4535
    4535       0    4537    4538    4538       0    4540    4541    4541       0
    4543    4544    4544       0    4546    4547    4547       0    4549    4550
    4550       0    4552    4553    4553       0    4555    4556    4556       0
    4558    4559    4559       0    4561    4562    4562       0    4564    4565
    4565       0    4567    4568    4568       0    4570    4571    4571       0
    4573    4574    4574       0    4576    4577    4577       0    4579    4580
    4580       0    4582    4583    4583       0    4585    4586    4586       0
    4588    4589    4589       0    4591    4592    4592       0    4594    4595
    4595       0    4597    4598    4598       0    4600    4601    4601       0
    4603    4604    4604       0    4606    4607    4607       0    4609    4610
    4610       0    4612    4613    4613       0    4615    4616    4616       0
    4618    4619    4619       0    4621    4622    4622       0    4624    4625
    4625       0    4627    4628    4628       0    4630    4631    4631       0
    4633    4634    4634       0    4636    4637    4637       0    4639    4640
    4640       0    4642    4643    4643       0    4645    4646    4646       0
    4648    4649    4649       0    4651    4652    4652       0    4654    4655
    4655       0    4657    4658    4658       0    4660    4661    4661       0
    4663    4664    4664       0    4666    4667    4667       0    4669    4670
    4670       0    4672    4673    4673       0    4675    4676    4676       0
    4678    4679    4679       0    4681    4682    4682       0    4684    4685
    4685       0    4687    4688    4688       0    4690    4691    4691       0
    4693    4694    4694       0    4696    4697    4697       0    4699    4700
    4700       0    4702    4703    4703       0    4705    4706    4706       0
    4708    4709    4709       0    4711    4712    4712       0    4714    4715
    4715       0    4717    4718    4718       0    4720    4721    4721       0
    4723    4724    4724       0    4726    4727    4727       0    4729    4730
    4730       0    4732    4733    4733       0    4735    4736    4736       0
    4738    4739    4739       0    4741    4742    4742       0    4744    4745
    4745       0    4747    4748    4748       0    4750    4751    4751       0
    4753    4754    4754       0    4756    4757    4757       0    4759    4760
    4760       0    4762    4763    4763       0    4765    4766    4766       0
    4768    4769    4769       0    4771    4772    4772       0    4774    4775
    4775       0    4777    4778    4778       0    4780    4781    4781       0
    4783    4784    4784       0    4786    4787    4787       0    4789    4790
    4790       0    4792    4793    4793       0    4795    4796    4796       0
    4798    4799    4799       0    4801    4802    4802       0    4804    4805
    4805       0    4807    4808    4808       0    4810    4811    4811       0
    4813    4814    4814       0    4816    4817    4817       0    4819    4820
    4820       0    4822    4823    4823       0    4825    4826    4826       0
    4828    4829    4829       0    4831    4832    4832       0    4834    4835
    4835       0    4837    4838    4838       0    4840    4841    4841       0
    4843    4844    4844       0    4846    4847    4847       0    4849    4850
    4850       0    4852    4853    4853       0    4855    4856    4856       0
    4858    4859    4859       0    4861    4862    4862       0    4864    4865
    4865       0    4867    4868    4868       0    4870    4871    4871       0
    4873    4874    4874       0    4876    4877    4877       0    4879    4880
    4880       0    4882    4883    4883       0    4885    4886    4886       0
    4888    4889    4889       0    4891    4892    4892       0    4894    4895
    4895       0    4897    4898    4898       0    4900    4901    4901       0
    4903    4904    4904       0    4906    4907    4907       0    4909    4910
    4910       0    4912    4913    4913       0    4915    4916    4916       0
    4918    4919    4919       0    4921    4922    4922       0    4924    4925
    4925       0    4927    4928    4928       0    4930    4931    4931       0
    4933    4934    4934       0    4936    4937    4937       0    4939    4940
    4940       0    4942    4943    4943       0    4945    4946    4946       0
    4948    4949    4949       0    4951    4952    4952       0    4954    4955
    4955       0    4957    4958    4958       0    4960    4961    4961       0
    4963    4964    4964       0    4966    4967    4967       0    4969    4970
    4970       0    4972    4973    4973       0    4975    4976    4976       0
    4978    4979    4979       0    4981    4982    4982       0    4984    4985
    4985       0    4987    4988    4988       0    4990    4991    4991       0
    4993    4994    4994       0    4996    4997    4997       0    4999    5000
    5000       0    5002    5003    5003       0    5005    5006    5006       0
    5008    5009    5009       0    5011    5012    5012       0    5014    5015
    5015       0    5017    5018    5018       0    5020    5021    5021       0
    5023    5024    5024       0    5026    5027    5027       0    5029    5030
    5030       0    5032    5033    5033       0    5035    5036    5036       0
    5038    5039    5039       0    5041    5042    5042       0    5044    5045
    5045       0    5047    5048    5048       0    5050    5051    5051       0
    5053    5054    5054       0    5056    5057    5057       0    5059    5060
    5060       0    5062    5063    5063       0    5065    5066    5066       0
    5068    5069    5069       0    5071    5072    5072       0    5074    5075
    5075       0    5077    5078    5078       0    5080    5081    5081       0
    5083    5084    5084       0    5086    5087    5087       0    5089    5090
    5090       0    5092    5093    5093       0    5095    5096    5096       0
    5098    5099    5099       0    5101    5102    5102       0    5104    5105
    5105       0    5107    5108    5108       0    5110    5111    5111       0
    5113    5114    5114       0    5116    5117    5117       0    5119    5120
    5120       0    5122    5123    5123       0    5125    5126    5126       0
    5128    5129    5129       0    5131    5132    5132       0    5134    5135
    5135       0    5137    5138    5138       0    5140    5141    5141       0
    5143    5144    5144       0    5146    5147    5147       0    5149    5150
    5150       0    5152    5153    5153       0    5155    5156    5156       0
    5158    5159    5159       0    5161    5162    5162       0    5164    5165
    5165       0    5167    5168    5168       0    5170    5171    5171       0
    5173    5174    5174       0    5176    5177    5177       0    5179    5180
    5180       0    5182    5183    5183       0    5185    5186    5186       0
    5188    5189    5189       0    5191    5192    5192       0    5194    5195
    5195       0    5197    5198    5198       0    5200    5201    5201       0
    5203    5204    5204       0    5206    5207    5207       0    5209    5210
    5210       0    5212    5213    5213       0    5215    5216    5216       0
    5218    5219    5219       0    5221    5222    5222       0    5224    5225
    5225       0    5227    5228    5228       0    5230    5231    5231       0
    5233    5234    5234       0    5236    5237    5237       0    5239    5240
    5240       0    5242    5243    5243       0    5245    5246    5246       0
    5248    5249    5249       0    5251    5252    5252       0    5254    5255
    5255       0    5257    5258    5258       0    5260    5261    5261       0
    5263    5264    5264       0    5266    5267    5267       0    5269    5270
    5270       0    5272    5273    5273       0    5275    5276    5276       0
    5278    5279    5279       0    5281    5282    5282       0    5284    5285
    5285       0    5287    5288    5288       0    5290    5291    5291       0
    5293    5294    5294       0    5296    5297    5297       0    5299    5300
    5300       0    5302    5303    5303       0    5305    5306    5306       0
    5308    5309    5309       0    5311    5312    5312       0    5314    5315
    5315       0    5317    5318    5318       0    5320    5321    5321       0
    5323    5324    5324       0    5326    5327    5327       0    5329    5330
    5330       0    5332    5333    5333       0    5335    5336    5336       0
    5338    5339    5339       0    5341    5342    5342       0    5344    5345
    5345       0    5347    5348    5348       0    5350    5351    5351       0
    5353    5354    5354       0    5356    5357    5357       0    5359    5360
    5360       0    5362    5363    5363       0    5365    5366    5366       0
    5368    5369    5369       0    5371    5372    5372       0    5374    5375
    5375       0    5377    5378    5378       0    5380    5381    5381       0
    5383    5384    5384       0    5386    5387    5387       0    5389    5390
    5390       0    5392    5393    5393       0    5395    5396    5396       0
    5398    5399    5399       0    5401    5402    5402       0    5404    5405
    5405       0    5407    5408    5408       0    5410    5411    5411       0
    5413    5414    5414       0    5416    5417    5417       0    5419    5420
    5420       0    5422    5423    5423       0    5425    5426    5426       0
    5428    5429    5429       0    5431    5432    5432       0    5434    5435
    5435       0    5437    5438    5438       0    5440    5441    5441       0
    5443    5444    5444       0    5446    5447    5447       0    5449    5450
    5450       0    5452    5453    5453       0    5455    5456    5456       0
    5458    5459    5459       0    5461    5462    5462       0    5464    5465
    5465       0    5467    5468    5468       0    5470    5471    5471       0
    5473    5474    5474       0    5476    5477    5477       0    5479    5480
    5480       0    5482    5483    5483       0    5485    5486    5486       0
    5488    5489    5489       0    5491    5492    5492       0    5494    5495
    5495       0    5497    5498    5498       0    5500    5501    5501       0
    5503    5504    5504       0    5506    5507    5507       0    5509    5510
    5510       0    5512    5513    5513       0    5515    5516    5516       0
    5518    5519    5519       0    5521    5522    5522       0    5524    5525
    5525       0    5527    5528    5528       0    5530    5531    5531       0
    5533    5534    5534       0    5536    5537    5537       0    5539    5540
    5540       0    5542    5543    5543       0    5545    5546    5546       0
    5548    5549    5549       0    5551    5552    5552       0    5554    5555
    5555       0    5557    5558    5558       0    5560    5561    5561       0
    5563    5564    5564       0    5566    5567    5567       0    5569    5570
    5570       0    5572    5573    5573       0    5575    5576    5576       0
    5578    5579    5579       0    5581    5582    5582       0    5584    5585
    5585       0    5587    5588    5588       0    5590    5591    5591       0
    5593    5594    5594       0    5596    5597    5597       0    5599    5600
    5600       0    5602    5603    5603       0    5605    5606    5606       0
    5608    5609    5609       0    5611    5612    5612       0    5614    5615
    5615       0    5617    5618    5618       0    5620    5621    5621       0
    5623    5624    5624       0    5626    5627    5627       0    5629    5630
    5630       0    5632    5633    5633       0    5635    5636    5636       0
    5638    5639    5639       0    5641    5642    5642       0    5644    5645
    5645       0    5647    5648    5648       0    5650    5651    5651       0
    5653    5654    5654       0    5656    5657    5657       0    5659    5660
    5660       0    5662    5663    5663       0    5665    5666    5666       0
    5668    5669    5669       0    5671    5672    5672       0    5674    5675
    5675       0    5677    5678    5678       0    5680    5681    5681       0
    5683    5684    5684       0    5686    5687    5687       0    5689    5690
    5690       0    5692    5693    5693       0    5695    5696    5696       0
    5698    5699    5699       0    5701    5702    5702       0    5704    5705
    5705       0    5707    5708    5708       0    5710    5711    5711       0
    5713    5714    5714       0    5716    5717    5717       0    5719    5720
    5720       0    5722    5723    5723       0    5725    5726    5726       0
    5728    5729    5729       0    5731    5732    5732       0    5734    5735
    5735       0    5737    5738    5738       0    5740    5741    5741       0
    5743    5744    5744       0    5746    5747    5747       0    5749    5750
    5750       0    5752    5753    5753       0    5755    5756    5756       0
    5758    5759    5759       0    5761    5762    5762       0    5764    5765
    5765       0    5767    5768    5768       0    5770    5771    5771       0
    5773    5774    5774       0    5776    5777    5777       0    5779    5780
    5780       0    5782    5783    5783       0    5785    5786    5786       0
    5788    5789    5789       0    5791    5792    5792       0    5794    5795
    5795       0    5797    5798    5798       0    5800    5801    5801       0
    5803    5804    5804       0    5806    5807    5807       0    5809    5810
    5810       0    5812    5813    5813       0    5815    5816    5816       0
    5818    5819    5819       0    5821    5822    5822       0    5824    5825
    5825       0    5827    5828    5828       0    5830    5831    5831       0
    5833    5834    5834       0    5836    5837    5837       0    5839    5840
    5840       0    5842    5843    5843       0    5845    5846    5846       0
    5848    5849    5849       0    5851    5852    5852       0    5854    5855
    5855       0    5857    5858    5858       0    5860    5861    5861       0
    5863    5864    5864       0    5866    5867    5867       0    5869    5870
    5870       0    5872    5873    5873       0    5875    5876    5876       0
    5878    5879    5879       0    5881    5882    5882       0    5884    5885
    5885       0    5887    5888    5888       0    5890    5891    5891       0
    5893    5894    5894       0    5896    5897    5897       0    5899    5900
    5900       0    5902    5903    5903       0    5905    5906    5906       0
    5908    5909    5909       0    5911    5912    5912       0    5914    5915
    5915       0    5917    5918    5918       0    5920    5921    5921       0
    5923    5924    5924       0    5926    5927    5927       0    5929    5930
    5930       0    5932    5933    5933       0    5935    5936    5936       0
    5938    5939    5939       0    5941    5942    5942       0    5944    5945
    5945       0    5947    5948    5948       0    5950    5951    5951       0
    5953    5954    5954       0    5956    5957    5957       0    5959    5960
    5960       0    5962    5963    5963       0    5965    5966    5966       0
    5968    5969    5969       0    5971    5972    5972       0    5974    5975
    5975       0    5977    5978    5978       0    5980    5981    5981       0
    5983    5984    5984       0    5986    5987    5987       0    5989    5990
    5990       0    5992    5993    5993       0    5995    5996    5996       0
    5998    5999    5999       0    6001    6002    6002       0    6004    6005
    6005       0    6007    6008    6008       0    6010    6011    6011       0
    6013    6014    6014       0    6016    6017    6017       0    6019    6020
    6020       0    6022    6023    6023       0    6025    6026    6026       0
    6028    6029    6029       0    6031    6032    6032       0    6034    6035
    6035       0    6037    6038    6038       0    6040    6041    6041       0
    6043    6044    6044       0    6046    6047    6047       0    6049    6050
    6050       0    6052    6053    6053       0    6055    6056    6056       0
    6058    6059    6059       0    6061    6062    6062       0    6064    6065
    6065       0    6067    6068    6068       0    6070    6071    6071       0
    6073    6074    6074       0    6076    6077    6077       0    6079    6080
    6080       0    6082    6083    6083       0    6085    6086    6086       0
    6088    6089    6089       0    6091    6092    6092       0    6094    6095
    6095       0    6097    6098    6098       0    6100    6101    6101       0
    6103    6104    6104       0    6106    6107    6107       0    6109    6110
    6110       0    6112    6113    6113       0    6115    6116    6116       0
    6118    6119    6119       0    6121    6122    6122       0    6124    6125
    6125       0    6127    6128    6128       0    6130    6131    6131       0
    6133    6134    6134       0    6136    6137    6137       0    6139    6140
    6140       0    6142    6143    6143       0    6145    6146    6146       0
    6148    6149    6149       0    6151    6152    6152       0    6154    6155
    6155       0    6157    6158    6158       0    6160    6161    6161       0
    6163    6164    6164       0    6166    6167    6167       0    6169    6170
    6170       0    6172    6173    6173       0    6175    6176    6176       0
    6178    6179    6179       0    6181    6182    6182       0    6184    6185
    6185       0    6187    6188    6188       0    6190    6191    6191       0
    6193    6194    6194       0    6196    6197    6197       0    6199    6200
    6200       0    6202    6203    6203       0    6205    6206    6206       0
    6208    6209    6209       0    6211    6212    6212       0    6214    6215
    6215       0    6217    6218    6218       0    6220    6221    6221       0
    6223    6224    6224       0    6226    6227    6227       0    6229    6230
    6230       0    6232    6233    6233       0    6235    6236    6236       0
    6238    6239    6239       0    6241    6242    6242       0    6244    6245
    6245       0    6247    6248    6248       0    6250    6251    6251       0
    6253    6254    6254       0    6256    6257    6257       0    6259    6260
    6260       0    6262    6263    6263       0    6265    6266    6266       0
    6268    6269    6269       0    6271    6272    6272       0    6274    6275
    6275       0    6277    6278    6278       0    6280    6281    6281       0
    6283    6284    6284       0    6286    6287    6287       0    6289    6290
    6290       0    6292    6293    6293       0    6295    6296    6296       0
    6298    6299    6299       0    6301    6302    6302       0    6304    6305
    6305       0    6307    6308    6308       0    6310    6311    6311       0
    6313    6314    6314       0    6316    6317    6317       0    6319    6320
    6320       0    6322    6323    6323       0    6325    6326    6326       0
    6328    6329    6329       0    6331    6332    6332       0    6334    6335
    6335       0    6337    6338    6338       0    6340    6341    6341       0
    6343    6344    6344       0    6346    6347    6347       0    6349    6350
    6350       0    6352    6353    6353       0    6355    6356    6356       0
    6358    6359    6359       0    6361    6362    6362       0    6364    6365
    6365       0    6367    6368    6368       0    6370    6371    6371       0
    6373    6374    6374       0    6376    6377    6377       0    6379    6380
    6380       0    6382    6383    6383       0    6385    6386    6386       0
    6388    6389    6389       0    6391    6392    6392       0    6394    6395
    6395       0    6397    6398    6398       0    6400    6401    6401       0
    6403    6404    6404       0    6406    6407    6407       0    6409    6410
    6410       0    6412    6413    6413       0    6415    6416    6416       0
    6418    6419    6419       0    6421    6422    6422       0    6424    6425
    6425       0    6427    6428    6428       0    6430    6431    6431       0
    6433    6434    6434       0    6436    6437    6437       0    6439    6440
    6440       0    6442    6443    6443       0    6445    6446    6446       0
    6448    6449    6449       0    6451    6452    6452       0    6454    6455
    6455       0    6457    6458    6458       0    6460    6461    6461       0
    6463    6464    6464       0    6466    6467    6467       0    6469    6470
    6470       0    6472    6473    6473       0    6475    6476    6476       0
    6478    6479    6479       0    6481    6482    6482       0    6484    6485
    6485       0    6487    6488    6488       0    6490    6491    6491       0
    6493    6494    6494       0    6496    6497    6497       0    6499    6500
    6500       0    6502    6503    6503       0    6505    6506    6506       0
    6508    6509    6509       0    6511    6512    6512       0    6514    6515
    6515       0    6517    6518    6518       0    6520    6521    6521       0
    6523    6524    6524       0    6526    6527    6527       0    6529    6530
    6530       0    6532    6533    6533       0    6535    6536    6536       0
    6538    6539    6539       0    6541    6542    6542       0    6544    6545
    6545       0    6547    6548    6548       0    6550    6551    6551       0
    6553    6554    6554       0    6556    6557    6557       0    6559    6560
    6560       0    6562    6563    6563       0    6565    6566    6566       0
    6568    6569    6569       0    6571    6572    6572       0    6574    6575
    6575       0    6577    6578    6578       0    6580    6581    6581       0
    6583    6584    6584       0    6586    6587    6587       0    6589    6590
    6590       0    6592    6593    6593       0    6595    6596    6596       0
    6598    6599    6599       0    6601    6602    6602       0    6604    6605
    6605       0    6607    6608    6608       0    6610    6611    6611       0
    6613    6614    6614       0    6616    6617    6617       0    6619    6620
    6620       0    6622    6623    6623       0    6625    6626    6626       0
    6628    6629    6629       0    6631    6632    6632       0    6634    6635
    6635       0    6637    6638    6638       0    6640    6641    6641       0
    6643    6644    6644       0    6646    6647    6647       0    6649    6650
    6650       0    6652    6653    6653       0    6655    6656    6656       0
    6658    6659    6659       0    6661    6662    6662       0    6664    6665
    6665       0    6667    6668    6668       0    6670    6671    6671       0
    6673    6674    6674       0    6676    6677    6677       0    6679    6680
    6680       0    6682    6683    6683       0    6685    6686    6686       0
    6688    6689    6689       0    6691    6692    6692       0    6694    6695
    6695       0    6697    6698    6698       0    6700    6701    6701       0
    6703    6704    6704       0    6706    6707    6707       0    6709    6710
    6710       0    6712    6713    6713       0    6715    6716    6716       0
    6718    6719    6719       0    6721    6722    6722       0    6724    6725
    6725       0    6727    6728    6728       0    6730    6731    6731       0
    6733    6734    6734       0    6736    6737    6737       0    6739    6740
    6740       0    6742    6743    6743       0    6745    6746    6746       0
    6748    6749    6749       0    6751    6752    6752       0    6754    6755
    6755       0    6757    6758    6758       0    6760    6761    6761       0
    6763    6764    6764       0    6766    6767    6767       0    6769    6770
    6770       0    6772    6773    6773       0    6775    6776    6776       0
    6778    6779    6779       0    6781    6782    6782       0    6784    6785
    6785       0    6787    6788    6788       0    6790    6791    6791       0
    6793    6794    6794       0    6796    6797    6797       0    6799    6800
    6800       0    6802    6803    6803       0    6805    6806    6806       0
    6808    6809    6809       0    6811    6812    6812       0    6814    6815
    6815       0    6817    6818    6818       0    6820    6821    6821       0
    6823    6824    6824       0    6826    6827    6827       0    6829    6830
    6830       0    6832    6833    6833       0    6835    6836    6836       0
    6838    6839    6839       0    6841    6842    6842       0    6844    6845
    6845       0    6847    6848    6848       0    6850    6851    6851       0
    6853    6854    6854       0    6856    6857    6857       0    6859    6860
    6860       0    6862    6863    6863       0    6865    6866    6866       0
    6868    6869    6869       0    6871    6872    6872       0    6874    6875
    6875       0    6877    6878    6878       0    6880    6881    6881       0
    6883    6884    6884       0    6886    6887    6887       0    6889    6890
    6890       0    6892    6893    6893       0    6895    6896    6896       0
    6898    6899    6899       0    6901    6902    6902       0    6904    6905
    6905       0    6907    6908    6908       0    6910    6911    6911       0
    6913    6914    6914       0    6916    6917    6917       0    6919    6920
    6920       0    6922    6923    6923       0    6925    6926    6926       0
    6928    6929    6929       0    6931    6932    6932       0    6934    6935
    6935       0    6937    6938    6938       0    6940    6941    6941       0
    6943    6944    6944       0    6946    6947    6947       0    6949    6950
    6950       0    6952    6953    6953       0    6955    6956    6956       0
    6958    6959    6959       0    6961    6962    6962       0    6964    6965
    6965       0    6967    6968    6968       0    6970    6971    6971       0
    6973    6974    6974       0    6976    6977    6977       0    6979    6980
    6980       0    6982    6983    6983       0    6985    6986    6986       0
    6988    6989    6989       0    6991    6992    6992       0    6994    6995
    6995       0    6997    6998    6998       0    7000    7001    7001       0
    7003    7004    7004       0    7006    7007    7007       0    7009    7010
    7010       0    7012    7013    7013       0    7015    7016    7016       0
    7018    7019    7019       0    7021    7022    7022       0    7024    7025
    7025       0    7027    7028    7028       0    7030    7031    7031       0
    7033    7034    7034       0    7036    7037    7037       0    7039    7040
    7040       0    7042    7043    7043       0    7045    7046    7046       0
    7048    7049    7049       0    7051    7052    7052       0    7054    7055
    7055       0    7057    7058    7058       0    7060    7061    7061       0
    7063    7064    7064       0    7066    7067    7067       0    7069    7070
    7070       0    7072    7073    7073       0    7075    7076    7076       0
    7078    7079    7079       0    7081    7082    7082       0    7084    7085
    7085       0    7087    7088    7088       0    7090    7091    7091       0
    7093    7094    7094       0    7096    7097    7097       0    7099    7100
    7100       0    7102    7103    7103       0    7105    7106    7106       0
    7108    7109    7109       0    7111    7112    7112       0    7114    7115
    7115       0    7117    7118    7118       0    7120    7121    7121       0
    7123    7124    7124       0    7126    7127    7127       0    7129    7130
    7130       0    7132    7133    7133       0    7135    7136    7136       0
    7138    7139    7139       0    7141    7142    7142       0    7144    7145
    7145       0    7147    7148    7148       0    7150    7151    7151       0
    7153    7154    7154       0    7156    7157    7157       0    7159    7160
    7160       0    7162    7163    7163       0    7165    7166    7166       0
    7168    7169    7169       0    7171    7172    7172       0    7174    7175
    7175       0    7177    7178    7178       0    7180    7181    7181       0
    7183    7184    7184       0    7186    7187    7187       0    7189    7190
    7190       0    7192    7193    7193       0    7195    7196    7196       0
    7198    7199    7199       0    7201    7202    7202       0    7204    7205
    7205       0    7207    7208    7208       0    7210    7211    7211       0
    7213    7214    7214       0    7216    7217    7217       0    7219    7220
    7220       0    7222    7223    7223       0    7225    7226    7226       0
    7228    7229    7229       0    7231    7232    7232       0    7234    7235
    7235       0    7237    7238    7238       0    7240    7241    7241       0
    7243    7244    7244       0    7246    7247    7247       0    7249    7250
    7250       0    7252    7253    7253       0    7255    7256    7256       0
    7258    7259    7259       0    7261    7262    7262       0    7264    7265
    7265       0    7267    7268    7268       0    7270    7271    7271       0
    7273    7274    7274       0    7276    7277    7277       0    7279    7280
    7280       0    7282    7283    7283       0    7285    7286    7286       0
    7288    7289    7289       0    7291    7292    7292       0    7294    7295
    7295       0    7297    7298    7298       0    7300    7301    7301       0
    7303    7304    7304       0    7306    7307    7307       0    7309    7310
    7310       0    7312    7313    7313       0    7315    7316    7316       0
    7318    7319    7319       0    7321    7322    7322       0    7324    7325
    7325       0    7327    7328    7328       0    7330    7331    7331       0
    7333    7334    7334       0    7336    7337    7337       0    7339    7340
    7340       0    7342    7343    7343       0    7345    7346    7346       0
    7348    7349    7349       0    7351    7352    7352       0    7354    7355
    7355       0    7357    7358    7358       0    7360    7361    7361       0
    7363    7364    7364       0    7366    7367    7367       0    7369    7370
    7370       0    7372    7373    7373       0    7375    7376    7376       0
    7378    7379    7379       0    7381    7382    7382       0    7384    7385
    7385       0    7387    7388    7388       0    7390    7391    7391       0
    7393    7394    7394       0    7396    7397    7397       0    7399    7400
    7400       0    7402    7403    7403       0    7405    7406    7406       0
    7408    7409    7409       0    7411    7412    7412       0    7414    7415
    7415       0    7417    7418    7418       0    7420    7421    7421       0
    7423    7424    7424       0    7426    7427    7427       0    7429    7430
    7430       0    7432    7433    7433       0    7435    7436    7436       0
    7438    7439    7439       0    7441    7442    7442       0    7444    7445
    7445       0    7447    7448    7448       0    7450    7451    7451       0
    7453    7454    7454       0    7456    7457    7457       0    7459    7460
    7460       0    7462    7463    7463       0    7465    7466    7466       0
    7468    7469    7469       0    7471    7472    7472       0    7474    7475
    7475       0    7477    7478    7478       0    7480    7481    7481       0
    7483    7484    7484       0    7486    7487    7487       0    7489    7490
    7490       0    7492    7493    7493       0    7495    7496    7496       0
    7498    7499    7499       0    7501    7502    7502       0    7504    7505
    7505       0    7507    7508    7508       0    7510    7511    7511       0
    7513    7514    7514       0    7516    7517    7517       0    7519    7520
    7520       0    7522    7523    7523       0    7525    7526    7526       0
    7528    7529    7529       0    7531    7532    7532       0    7534    7535
    7535       0    7537    7538    7538       0    7540    7541    7541       0
    7543    7544    7544       0    7546    7547    7547       0    7549    7550
    7550       0    7552    7553    7553       0    7555    7556    7556       0
    7558    7559    7559       0    7561    7562    7562       0    7564    7565
    7565       0    7567    7568    7568       0    7570    7571    7571       0
    7573    7574    7574       0    7576    7577    7577       0    7579    7580
    7580       0    7582    7583    7583       0    7585    7586    7586       0
    7588    7589    7589       0    7591    7592    7592       0    7594    7595
    7595       0    7597    7598    7598       0    7600    7601    7601       0
    7603    7604    7604       0    7606    7607    7607       0    7609    7610
    7610       0    7612    7613    7613       0    7615    7616    7616       0
    7618    7619    7619       0    7621    7622    7622       0    7624    7625
    7625       0    7627    7628    7628       0    7630    7631    7631       0
    7633    7634    7634       0    7636    7637    7637       0    7639    7640
    7640       0    7642    7643    7643       0    7645    7646    7646       0
    7648    7649    7649       0    7651    7652    7652       0    7654    7655
    7655       0    7657    7658    7658       0    7660    7661    7661       0
    7663    7664    7664       0    7666    7667    7667       0    7669    7670
    7670       0    7672    7673    7673       0    7675    7676    7676       0
    7678    7679    7679       0    7681    7682    7682       0    7684    7685
    7685       0    7687    7688    7688       0    7690    7691    7691       0
    7693    7694    7694       0    7696    7697    7697       0    7699    7700
    7700       0    7702    7703    7703       0    7705    7706    7706       0
    7708    7709    7709       0    7711    7712    7712       0    7714    7715
    7715       0    7717    7718    7718       0    7720    7721    7721       0
    7723    7724    7724       0    7726    7727    7727       0    7729    7730
    7730       0    7732    7733    7733       0    7735    7736    7736       0
    7738    7739    7739       0    7741    7742    7742       0    7744    7745
    7745       0    7747    7748    7748       0    7750    7751    7751       0
    7753    7754    7754       0    7756    7757    7757       0    7759    7760
    7760       0    7762    7763    7763       0    7765    7766    7766       0
    7768    7769    7769       0    7771    7772    7772       0    7774    7775
    7775       0    7777    7778    7778       0    7780    7781    7781       0
    7783    7784    7784       0    7786    7787    7787       0    7789    7790
    7790       0    7792    7793    7793       0    7795    7796    7796       0
    7798    7799    7799       0    7801    7802    7802       0    7804    7805
    7805       0    7807    7808    7808       0    7810    7811    7811       0
    7813    7814    7814       0    7816    7817    7817       0    7819    7820
    7820       0    7822    7823    7823       0    7825    7826    7826       0
    7828    7829    7829       0    7831    7832    7832       0    7834    7835
    7835       0    7837    7838    7838       0    7840    7841    7841       0
    7843    7844    7844       0    7846    7847    7847       0    7849    7850
    7850       0    7852    7853    7853       0    7855    7856    7856       0
    7858    7859    7859       0    7861    7862    7862       0    7864    7865
    7865       0    7867    7868    7868       0    7870    7871    7871       0
    7873    7874    7874       0    7876    7877    7877       0    7879    7880
    7880       0    7882    7883    7883       0    7885    7886    7886       0
    7888    7889    7889       0    7891    7892    7892       0    7894    7895
    7895       0    7897    7898    7898       0    7900    7901    7901       0
    7903    7904    7904       0    7906    7907    7907       0    7909    7910
    7910       0    7912    7913    7913       0    7915    7916    7916       0
    7918    7919    7919       0    7921    7922    7922       0    7924    7925
    7925       0    7927    7928    7928       0    7930    7931    7931       0
    7933    7934    7934       0    7936    7937    7937       0    7939    7940
    7940       0    7942    7943    7943       0    7945    7946    7946       0
    7948    7949    7949       0    7951    7952    7952       0    7954    7955
    7955       0    7957    7958    7958       0    7960    7961    7961       0
    7963    7964    7964       0    7966    7967    7967       0    7969    7970
    7970       0    7972    7973    7973       0    7975    7976    7976       0
    7978    7979    7979       0    7981    7982    7982       0    7984    7985
    7985       0    7987    7988    7988       0    7990    7991    7991       0
    7993    7994    7994       0    7996    7997    7997       0    7999    8000
    8000       0    8002    8003    8003       0    8005    8006    8006       0
    8008    8009    8009       0    8011    8012    8012       0    8014    8015
    8015       0    8017    8018    8018       0    8020    8021    8021       0
    8023    8024    8024       0    8026    8027    8027       0    8029    8030
    8030       0    8032    8033    8033       0    8035    8036    8036       0
    8038    8039    8039       0    8041    8042    8042       0    8044    8045
    8045       0    8047    8048    8048       0    8050    8051    8051       0
    8053    8054    8054       0    8056    8057    8057       0    8059    8060
    8060       0    8062    8063    8063       0    8065    8066    8066       0
    8068    8069    8069       0    8071    8072    8072       0    8074    8075
    8075       0    8077    8078    8078       0    8080    8081    8081       0
    8083    8084    8084       0    8086    8087    8087       0    8089    8090
    8090       0    8092    8093    8093       0    8095    8096    8096       0
    8098    8099    8099       0    8101    8102    8102       0    8104    8105
    8105       0    8107    8108    8108       0    8110    8111    8111       0
    8113    8114    8114       0    8116    8117    8117       0    8119    8120
    8120       0    8122    8123    8123       0    8125    8126    8126       0
    8128    8129    8129       0    8131    8132    8132       0    8134    8135
    8135       0    8137    8138    8138       0    8140    8141    8141       0
    8143    8144    8144       0    8146    8147    8147       0    8149    8150
    8150       0    8152    8153    8153       0    8155    8156    8156       0
    8158    8159    8159       0    8161    8162    8162       0    8164    8165
    8165       0    8167    8168    8168       0    8170    8171    8171       0
    8173    8174    8174       0    8176    8177    8177       0    8179    8180
    8180       0    8182    8183    8183       0    8185    8186    8186       0
    8188    8189    8189       0    8191    8192    8192       0    8194    8195
    8195       0    8197    8198    8198       0    8200    8201    8201       0
    8203    8204    8204       0    8206    8207    8207       0    8209    8210
    8210       0    8212    8213    8213       0    8215    8216    8216       0
    8218    8219    8219       0    8221    8222    8222       0    8224    8225
    8225       0    8227    8228    8228       0    8230    8231    8231       0
    8233    8234    8234       0    8236    8237    8237       0    8239    8240
    8240       0    8242    8243    8243       0    8245    8246    8246       0
    8248    8249    8249       0    8251    8252    8252       0    8254    8255
    8255       0    8257    8258    8258       0    8260    8261    8261       0
    8263    8264    8264       0    8266    8267    8267       0    8269    8270
    8270       0    8272    8273    8273       0    8275    8276    8276       0
    8278    8279    8279       0    8281    8282    8282       0    8284    8285
    8285       0    8287    8288    8288       0    8290    8291    8291       0
    8293    8294    8294       0    8296    8297    8297       0    8299    8300
    8300       0    8302    8303    8303       0    8305    8306    8306       0
    8308    8309    8309       0    8311    8312    8312       0    8314    8315
    8315       0    8317    8318    8318       0    8320    8321    8321       0
    8323    8324    8324       0    8326    8327    8327       0    8329    8330
    8330       0    8332    8333    8333       0    8335    8336    8336       0
    8338    8339    8339       0    8341    8342    8342       0    8344    8345
    8345       0    8347    8348    8348       0
%FLAG HBOND_ACOEF                                                               
%FORMAT(5E16.8)                                                                 
  0.00000000E+00
%FLAG HBOND_BCOEF                                                               
%FORMAT(5E16.8)                                                                 
  0.00000000E+00
%FLAG HBCUT                                                                     
%FORMAT(5E16.8)                                                                 
  0.00000000E+00
%FLAG AMBER_ATOM_TYPE                                                           
%FORMAT(20a4)                                                                   
N3  H   H   H   CX  HP  HP  C   O   N   H   CX  H1  CT  HC  HC  CA  CA  HA  CA  
HA  C   OH  HO  CA  HA  CA  HA  C   O   N   H   CX  H1  2C  HC  HC  CO  O2  O2  
C   O   N   CT  H1  H1  CT  HC  HC  CT  HC  HC  CX  H1  C   O   N   H   CX  H1  
2C  HC  HC  2C  HC  HC  CO  O2  O2  C   O   N   H   CX  H1  3C  H1  CT  HC  HC  
HC  OH  HO  C   O   N   H   CX  H1  H1  C   O   N   H   CX  H1  3C  H1  CT  HC  
HC  HC  OH  HO  C   O   N   H   CX  H1  CT  HC  HC  C*  CW  H4  NA  H   CN  CA  
HA  CA  HA  CA  HA  CA  HA  CB  C   O   N   H   CX  H1  H1  C   O2  O2  Na+ Na+ 
OW  HW  HW  OW  HW  HW  OW  HW  HW  OW  HW  HW  OW  HW  HW  OW  HW  HW  OW  HW  
HW  OW  HW  HW  OW  HW  HW  OW  HW  HW  OW  HW  HW  OW  HW  HW  OW  HW  HW  OW  
HW  HW  OW  HW  HW  OW  HW  HW  OW  HW  HW  OW  HW  HW  OW  HW  HW  OW  HW  HW  
OW  HW  HW  OW  HW  HW  OW  HW  HW  OW  HW  HW  OW  HW  HW  OW  HW  HW  OW  HW  
HW  OW  HW  HW  OW  HW  HW  OW  HW  HW  OW  HW  HW  OW  HW  HW  OW  HW  HW  OW  
HW  HW  OW  HW  HW  OW  HW  HW  OW  HW  HW  OW  HW  HW  OW  HW  HW  OW  HW  HW  
OW  HW  HW  OW  HW  HW  OW  HW  HW  OW  HW  HW  OW  HW  HW  OW  HW  HW  OW  HW  
HW  OW  HW  HW  OW  HW  HW  OW  HW  HW  OW  HW  HW  OW  HW  HW  OW  HW  HW  OW  
HW  HW  OW  HW  HW  OW  HW  HW  OW  HW  HW  OW  HW  HW  OW  HW  HW  OW  HW  HW  
OW  HW  HW  OW  HW  HW  OW  HW  HW  OW  HW  HW  OW  HW  HW  OW  HW  HW  OW  HW  
HW  OW  HW  HW  OW  HW  HW  OW  HW  HW  OW  HW  HW  OW  HW  HW  OW  HW  HW  OW  
HW  HW  OW  HW  HW  OW  HW  HW  OW  HW  HW  OW  HW  HW  OW  HW  HW  OW  HW  HW  
OW  HW  HW  OW  HW  HW  OW  HW  HW  OW  HW  HW  OW  HW  HW  OW  HW  HW  OW  HW  
HW  OW  HW  HW  OW  HW  HW  OW  HW  HW  OW  HW  HW  OW  HW  HW  OW  HW  HW  OW  
HW  HW  OW  HW  HW  OW  HW  HW  OW  HW  HW  OW  HW  HW  OW  HW  HW  OW  HW  HW  
OW  HW  HW  OW  HW  HW  OW  HW  HW  OW  HW  HW  OW  HW  HW  OW  HW  HW  OW  HW  
HW  OW  HW  HW  OW  HW  HW  OW  HW  HW  OW  HW  HW  OW  HW  HW  OW  HW  HW  OW  
HW  HW  OW  HW  HW  OW  HW  HW  OW  HW  HW  OW  HW  HW  OW  HW  HW  OW  HW  HW  
OW  HW  HW  OW  HW  HW  OW  HW  HW  OW  HW  HW  OW  HW  HW  OW  HW  HW  OW  HW  
HW  OW  HW  HW  OW  HW  HW  OW  HW  HW  OW  HW  HW  OW  HW  HW  OW  HW  HW  OW  
HW  HW  OW  HW  HW  OW  HW  HW  OW  HW  HW  OW  HW  HW  OW  HW  HW  OW  HW  HW  
OW  HW  HW  OW  HW  HW  OW  HW  HW  OW  HW  HW  OW  HW  HW  OW  HW  HW  OW  HW  
HW  OW  HW  HW  OW  HW  HW  OW  HW  HW  OW  HW  HW  OW  HW  HW  OW  HW  HW  OW  
HW  HW  OW  HW  HW  OW  HW  HW  OW  HW  HW  OW  HW  HW  OW  HW  HW  OW  HW  HW  
OW  HW  HW  OW  HW  HW  OW  HW  HW  OW  HW  HW  OW  HW  HW  OW  HW  HW  OW  HW  
HW  OW  HW  HW  OW  HW  HW  OW  HW  HW  OW  HW  HW  OW  HW  HW  OW  HW  HW  OW  
HW  HW  OW  HW  HW  OW  HW  HW  OW  HW  HW  OW  HW  HW  OW  HW  HW  OW  HW  HW  
OW  HW  HW  OW  HW  HW  OW  HW  HW  OW  HW  HW  OW  HW  HW  OW  HW  HW  OW  HW  
HW  OW  HW  HW  OW  HW  HW  OW  HW  HW  OW  HW  HW  OW  HW  HW  OW  HW  HW  OW  
HW  HW  OW  HW  HW  OW  HW  HW  OW  HW  HW  OW  HW  HW  OW  HW  HW  OW  HW  HW  
OW  HW  HW  OW  HW  HW  OW  HW  HW  OW  HW  HW  OW  HW  HW  OW  HW  HW  OW  HW  
HW  OW  HW  HW  OW  HW  HW  OW  HW  HW  OW  HW  HW  OW  HW  HW  OW  HW  HW  OW  
HW  HW  OW  HW  HW  OW  HW  HW  OW  HW  HW  OW  HW  HW  OW  HW  HW  OW  HW  HW  
OW  HW  HW  OW  HW  HW  OW  HW  HW  OW  HW  HW  OW  HW  HW  OW  HW  HW  OW  HW  
HW  OW  HW  HW  OW  HW  HW  OW  HW  HW  OW  HW  HW  OW  HW  HW  OW  HW  HW  OW  
HW  HW  OW  HW  HW  OW  HW  HW  OW  HW  HW  OW  HW  HW  OW  HW  HW  OW  HW  HW  
OW  HW  HW  OW  HW  HW  OW  HW  HW  OW  HW  HW  OW  HW  HW  OW  HW  HW  OW  HW  
HW  OW  HW  HW  OW  HW  HW  OW  HW  HW  OW  HW  HW  OW  HW  HW  OW  HW  HW  OW  
HW  HW  OW  HW  HW  OW  HW  HW  OW  HW  HW  OW  HW  HW  OW  HW  HW  OW  HW  HW  
OW  HW  HW  OW  HW  HW  OW  HW  HW  OW  HW  HW  OW  HW  HW  OW  HW  HW  OW  HW  
HW  OW  HW  HW  OW  HW  HW  OW  HW  HW  OW  HW  HW  OW  HW  HW  OW  HW  HW  OW  
HW  HW  OW  HW  HW  OW  HW  HW  OW  HW  HW  OW  HW  HW  OW  HW  HW  OW  HW  HW  
OW  HW  HW  OW  HW  HW  OW  HW  HW  OW  HW  HW  OW  HW  HW  OW  HW  HW  OW  HW  
HW  OW  HW  HW  OW  HW  HW  OW  HW  HW  OW  HW  HW  OW  HW  HW  OW  HW  HW  OW  
HW  HW  OW  HW  HW  OW  HW  HW  OW  HW  HW  OW  HW  HW  OW  HW  HW  OW  HW  HW  
OW  HW  HW  OW  HW  HW  OW  HW  HW  OW  HW  HW  OW  HW  HW  OW  HW  HW  OW  HW  
HW  OW  HW  HW  OW  HW  HW  OW  HW  HW  OW  HW  HW  OW  HW  HW  OW  HW  HW  OW  
HW  HW  OW  HW  HW  OW  HW  HW  OW  HW  HW  OW  HW  HW  OW  HW  HW  OW  HW  HW  
OW  HW  HW  OW  HW  HW  OW  HW  HW  OW  HW  HW  OW  HW  HW  OW  HW  HW  OW  HW  
HW  OW  HW  HW  OW  HW  HW  OW  HW  HW  OW  HW  HW  OW  HW  HW  OW  HW  HW  OW  
HW  HW  OW  HW  HW  OW  HW  HW  OW  HW  HW  OW  HW  HW  OW  HW  HW  OW  HW  HW  
OW  HW  HW  OW  HW  HW  OW  HW  HW  OW  HW  HW  OW  HW  HW  OW  HW  HW  OW  HW  
HW  OW  HW  HW  OW  HW  HW  OW  HW  HW  OW  HW  HW  OW  HW  HW  OW  HW  HW  OW  
HW  HW  OW  HW  HW  OW  HW  HW  OW  HW  HW  OW  HW  HW  OW  HW  HW  OW  HW  HW  
OW  HW  HW  OW  HW  HW  OW  HW  HW  OW  HW  HW  OW  HW  HW  OW  HW  HW  OW  HW  
HW  OW  HW  HW  OW  HW  HW  OW  HW  HW  OW  HW  HW  OW  HW  HW  OW  HW  HW  OW  
HW  HW  OW  HW  HW  OW  HW  HW  OW  HW  HW  OW  HW  HW  OW  HW  HW  OW  HW  HW  
OW  HW  HW  OW  HW  HW  OW  HW  HW  OW  HW  HW  OW  HW  HW  OW  HW  HW  OW  HW  
HW  OW  HW  HW  OW  HW  HW  OW  HW  HW  OW  HW  HW  OW  HW  HW  OW  HW  HW  OW  
HW  HW  OW  HW  HW  OW  HW  HW  OW  HW  HW  OW  HW  HW  OW  HW  HW  OW  HW  HW  
OW  HW  HW  OW  HW  HW  OW  HW  HW  OW  HW  HW  OW  HW  HW  OW  HW  HW  OW  HW  
HW  OW  HW  HW  OW  HW  HW  OW  HW  HW  OW  HW  HW  OW  HW  HW  OW  HW  HW  OW  
HW  HW  OW  HW  HW  OW  HW  HW  OW  HW  HW  OW  HW  HW  OW  HW  HW  OW  HW  HW  
OW  HW  HW  OW  HW  HW  OW  HW  HW  OW  HW  HW  OW  HW  HW  OW  HW  HW  OW  HW  
HW  OW  HW  HW  OW  HW  HW  OW  HW  HW  OW  HW  HW  OW  HW  HW  OW  HW  HW  OW  
HW  HW  OW  HW  HW  OW  HW  HW  OW  HW  HW  OW  HW  HW  OW  HW  HW  OW  HW  HW  
OW  HW  HW  OW  HW  HW  OW  HW  HW  OW  HW  HW  OW  HW  HW  OW  HW  HW  OW  HW  
HW  OW  HW  HW  OW  HW  HW  OW  HW  HW  OW  HW  HW  OW  HW  HW  OW  HW  HW  OW  
HW  HW  OW  HW  HW  OW  HW  HW  OW  HW  HW  OW  HW  HW  OW  HW  HW  OW  HW  HW  
OW  HW  HW  OW  HW  HW  OW  HW  HW  OW  HW  HW  OW  HW  HW  OW  HW  HW  OW  HW  
HW  OW  HW  HW  OW  HW  HW  OW  HW  HW  OW  HW  HW  OW  HW  HW  OW  HW  HW  OW  
HW  HW  OW  HW  HW  OW  HW  HW  OW  HW  HW  OW  HW  HW  OW  HW  HW  OW  HW  HW  
OW  HW  HW  OW  HW  HW  OW  HW  HW  OW  HW  HW  OW  HW  HW  OW  HW  HW  OW  HW  
HW  OW  HW  HW  OW  HW  HW  OW  HW  HW  OW  HW  HW  OW  HW  HW  OW  HW  HW  OW  
HW  HW  OW  HW  HW  OW  HW  HW  OW  HW  HW  OW  HW  HW  OW  HW  HW  OW  HW  HW  
OW  HW  HW  OW  HW  HW  OW  HW  HW  OW  HW  HW  OW  HW  HW  OW  HW  HW  OW  HW  
HW  OW  HW  HW  OW  HW  HW  OW  HW  HW  OW  HW  HW  OW  HW  HW  OW  HW  HW  OW  
HW  HW  OW  HW  HW  OW  HW  HW  OW  HW  HW  OW  HW  HW  OW  HW  HW  OW  HW  HW  
OW  HW  HW  OW  HW  HW  OW  HW  HW  OW  HW  HW  OW  HW  HW  OW  HW  HW  OW  HW  
HW  OW  HW  HW  OW  HW  HW  OW  HW  HW  OW  HW  HW  OW  HW  HW  OW  HW  HW  OW  
HW  HW  OW  HW  HW  OW  HW  HW  OW  HW  HW  OW  HW  HW  OW  HW  HW  OW  HW  HW  
OW  HW  HW  OW  HW  HW  OW  HW  HW  OW  HW  HW  OW  HW  HW  OW  HW  HW  OW  HW  
HW  OW  HW  HW  OW  HW  HW  OW  HW  HW  OW  HW  HW  OW  HW  HW  OW  HW  HW  OW  
HW  HW  OW  HW  HW  OW  HW  HW  OW  HW  HW  OW  HW  HW  OW  HW  HW  OW  HW  HW  
OW  HW  HW  OW  HW  HW  OW  HW  HW  OW  HW  HW  OW  HW  HW  OW  HW  HW  OW  HW  
HW  OW  HW  HW  OW  HW  HW  OW  HW  HW  OW  HW  HW  OW  HW  HW  OW  HW  HW  OW  
HW  HW  OW  HW  HW  OW  HW  HW  OW  HW  HW  OW  HW  HW  OW  HW  HW  OW  HW  HW  
OW  HW  HW  OW  HW  HW  OW  HW  HW  OW  HW  HW  OW  HW  HW  OW  HW  HW  OW  HW  
HW  OW  HW  HW  OW  HW  HW  OW  HW  HW  OW  HW  HW  OW  HW  HW  OW  HW  HW  OW  
HW  HW  OW  HW  HW  OW  HW  HW  OW  HW  HW  OW  HW  HW  OW  HW  HW  OW  HW  HW  
OW  HW  HW  OW  HW  HW  OW  HW  HW  OW  HW  HW  OW  HW  HW  OW  HW  HW  OW  HW  
HW  OW  HW  HW  OW  HW  HW  OW  HW  HW  OW  HW  HW  OW  HW  HW  OW  HW  HW  OW  
HW  HW  OW  HW  HW  OW  HW  HW  OW  HW  HW  OW  HW  HW  OW  HW  HW  OW  HW  HW  
OW  HW  HW  OW  HW  HW  OW  HW  HW  OW  HW  HW  OW  HW  HW  OW  HW  HW  OW  HW  
HW  OW  HW  HW  OW  HW  HW  OW  HW  HW  OW  HW  HW  OW  HW  HW  OW  HW  HW  OW  
HW  HW  OW  HW  HW  OW  HW  HW  OW  HW  HW  OW  HW  HW  OW  HW  HW  OW  HW  HW  
OW  HW  HW  OW  HW  HW  OW  HW  HW  OW  HW  HW  OW  HW  HW  OW  HW  HW  OW  HW  
HW  OW  HW  HW  OW  HW  HW  OW  HW  HW  OW  HW  HW  OW  HW  HW  OW  HW  HW  OW  
HW  HW  OW  HW  HW  OW  HW  HW  OW  HW  HW  OW  HW  HW  OW  HW  HW  OW  HW  HW  
OW  HW  HW  OW  HW  HW  OW  HW  HW  OW  HW  HW  OW  HW  HW  OW  HW  HW  OW  HW  
HW  OW  HW  HW  OW  HW  HW  OW  HW  HW  OW  HW  HW  OW  HW  HW  OW  HW  HW  OW  
HW  HW  OW  HW  HW  OW  HW  HW  OW  HW  HW  OW  HW  HW  OW  HW  HW  OW  HW  HW  
OW  HW  HW  OW  HW  HW  OW  HW  HW  OW  HW  HW  OW  HW  HW  OW  HW  HW  OW  HW  
HW  OW  HW  HW  OW  HW  HW  OW  HW  HW  OW  HW  HW  OW  HW  HW  OW  HW  HW  OW  
HW  HW  OW  HW  HW  OW  HW  HW  OW  HW  HW  OW  HW  HW  OW  HW  HW  OW  HW  HW  
OW  HW  HW  OW  HW  HW  OW  HW  HW  OW  HW  HW  OW  HW  HW  OW  HW  HW  OW  HW  
HW  OW  HW  HW  OW  HW  HW  OW  HW  HW  OW  HW  HW  OW  HW  HW  OW  HW  HW  OW  
HW  HW  OW  HW  HW  OW  HW  HW  OW  HW  HW  OW  HW  HW  OW  HW  HW  OW  HW  HW  
OW  HW  HW  OW  HW  HW  OW  HW  HW  OW  HW  HW  OW  HW  HW  OW  HW  HW  OW  HW  
HW  OW  HW  HW  OW  HW  HW  OW  HW  HW  OW  HW  HW  OW  HW  HW  OW  HW  HW  OW  
HW  HW  OW  HW  HW  OW  HW  HW  OW  HW  HW  OW  HW  HW  OW  HW  HW  OW  HW  HW  
OW  HW  HW  OW  HW  HW  OW  HW  HW  OW  HW  HW  OW  HW  HW  OW  HW  HW  OW  HW  
HW  OW  HW  HW  OW  HW  HW  OW  HW  HW  OW  HW  HW  OW  HW  HW  OW  HW  HW  OW  
HW  HW  OW  HW  HW  OW  HW  HW  OW  HW  HW  OW  HW  HW  OW  HW  HW  OW  HW  HW  
OW  HW  HW  OW  HW  HW  OW  HW  HW  OW  HW  HW  OW  HW  HW  OW  HW  HW  OW  HW  
HW  OW  HW  HW  OW  HW  HW  OW  HW  HW  OW  HW  HW  OW  HW  HW  OW  HW  HW  OW  
HW  HW  OW  HW  HW  OW  HW  HW  OW  HW  HW  OW  HW  HW  OW  HW  HW  OW  HW  HW  
OW  HW  HW  OW  HW  HW  OW  HW  HW  OW  HW  HW  OW  HW  HW  OW  HW  HW  OW  HW  
HW  OW  HW  HW  OW  HW  HW  OW  HW  HW  OW  HW  HW  OW  HW  HW  OW  HW  HW  OW  
HW  HW  OW  HW  HW  OW  HW  HW  OW  HW  HW  OW  HW  HW  OW  HW  HW  OW  HW  HW  
OW  HW  HW  OW  HW  HW  OW  HW  HW  OW  HW  HW  OW  HW  HW  OW  HW  HW  OW  HW  
HW  OW  HW  HW  OW  HW  HW  OW  HW  HW  OW  HW  HW  OW  HW  HW  OW  HW  HW  OW  
HW  HW  OW  HW  HW  OW  HW  HW  OW  HW  HW  OW  HW  HW  OW  HW  HW  OW  HW  HW  
OW  HW  HW  OW  HW  HW  OW  HW  HW  OW  HW  HW  OW  HW  HW  OW  HW  HW  OW  HW  
HW  OW  HW  HW  OW  HW  HW  OW  HW  HW  OW  HW  HW  OW  HW  HW  OW  HW  HW  OW  
HW  HW  OW  HW  HW  OW  HW  HW  OW  HW  HW  OW  HW  HW  OW  HW  HW  OW  HW  HW  
OW  HW  HW  OW  HW  HW  OW  HW  HW  OW  HW  HW  OW  HW  HW  OW  HW  HW  OW  HW  
HW  OW  HW  HW  OW  HW  HW  OW  HW  HW  OW  HW  HW  OW  HW  HW  OW  HW  HW  OW  
HW  HW  OW  HW  HW  OW  HW  HW  OW  HW  HW  OW  HW  HW  OW  HW  HW  OW  HW  HW  
OW  HW  HW  OW  HW  HW  OW  HW  HW  OW  HW  HW  OW  HW  HW  OW  HW  HW  OW  HW  
HW  OW  HW  HW  OW  HW  HW  OW  HW  HW  OW  HW  HW  OW  HW  HW  OW  HW  HW  OW  
HW  HW  OW  HW  HW  OW  HW  HW  OW  HW  HW  OW  HW  HW  OW  HW  HW  OW  HW  HW  
OW  HW  HW  OW  HW  HW  OW  HW  HW  OW  HW  HW  OW  HW  HW  OW  HW  HW  OW  HW  
HW  OW  HW  HW  OW  HW  HW  OW  HW  HW  OW  HW  HW  OW  HW  HW  OW  HW  HW  OW  
HW  HW  OW  HW  HW  OW  HW  HW  OW  HW  HW  OW  HW  HW  OW  HW  HW  OW  HW  HW  
OW  HW  HW  OW  HW  HW  OW  HW  HW  OW  HW  HW  OW  HW  HW  OW  HW  HW  OW  HW  
HW  OW  HW  HW  OW  HW  HW  OW  HW  HW  OW  HW  HW  OW  HW  HW  OW  HW  HW  OW  
HW  HW  OW  HW  HW  OW  HW  HW  OW  HW  HW  OW  HW  HW  OW  HW  HW  OW  HW  HW  
OW  HW  HW  OW  HW  HW  OW  HW  HW  OW  HW  HW  OW  HW  HW  OW  HW  HW  OW  HW  
HW  OW  HW  HW  OW  HW  HW  OW  HW  HW  OW  HW  HW  OW  HW  HW  OW  HW  HW  OW  
HW  HW  OW  HW  HW  OW  HW  HW  OW  HW  HW  OW  HW  HW  OW  HW  HW  OW  HW  HW  
OW  HW  HW  OW  HW  HW  OW  HW  HW  OW  HW  HW  OW  HW  HW  OW  HW  HW  OW  HW  
HW  OW  HW  HW  OW  HW  HW  OW  HW  HW  OW  HW  HW  OW  HW  HW  OW  HW  HW  OW  
HW  HW  OW  HW  HW  OW  HW  HW  OW  HW  HW  OW  HW  HW  OW  HW  HW  OW  HW  HW  
OW  HW  HW  OW  HW  HW  OW  HW  HW  OW  HW  HW  OW  HW  HW  OW  HW  HW  OW  HW  
HW  OW  HW  HW  OW  HW  HW  OW  HW  HW  OW  HW  HW  OW  HW  HW  OW  HW  HW  OW  
HW  HW  OW  HW  HW  OW  HW  HW  OW  HW  HW  OW  HW  HW  OW  HW  HW  OW  HW  HW  
OW  HW  HW  OW  HW  HW  OW  HW  HW  OW  HW  HW  OW  HW  HW  OW  HW  HW  OW  HW  
HW  OW  HW  HW  OW  HW  HW  OW  HW  HW  OW  HW  HW  OW  HW  HW  OW  HW  HW  OW  
HW  HW  OW  HW  HW  OW  HW  HW  OW  HW  HW  OW  HW  HW  OW  HW  HW  OW  HW  HW  
OW  HW  HW  OW  HW  HW  OW  HW  HW  OW  HW  HW  OW  HW  HW  OW  HW  HW  OW  HW  
HW  OW  HW  HW  OW  HW  HW  OW  HW  HW  OW  HW  HW  OW  HW  HW  OW  HW  HW  OW  
HW  HW  OW  HW  HW  OW  HW  HW  OW  HW  HW  OW  HW  HW  OW  HW  HW  OW  HW  HW  
OW  HW  HW  OW  HW  HW  OW  HW  HW  OW  HW  HW  OW  HW  HW  OW  HW  HW  OW  HW  
HW  OW  HW  HW  OW  HW  HW  OW  HW  HW  OW  HW  HW  OW  HW  HW  OW  HW  HW  OW  
HW  HW  OW  HW  HW  OW  HW  HW  OW  HW  HW  OW  HW  HW  OW  HW  HW  OW  HW  HW  
OW  HW  HW  OW  HW  HW  OW  HW  HW  OW  HW  HW  OW  HW  HW  OW  HW  HW  OW  HW  
HW  OW  HW  HW  OW  HW  HW  OW  HW  HW  OW  HW  HW  OW  HW  HW  OW  HW  HW  OW  
HW  HW  OW  HW  HW  OW  HW  HW  OW  HW  HW  OW  HW  HW  OW  HW  HW  OW  HW  HW  
OW  HW  HW  OW  HW  HW  OW  HW  HW  OW  HW  HW  OW  HW  HW  OW  HW  HW  OW  HW  
HW  OW  HW  HW  OW  HW  HW  OW  HW  HW  OW  HW  HW  OW  HW  HW  OW  HW  HW  OW  
HW  HW  OW  HW  HW  OW  HW  HW  OW  HW  HW  OW  HW  HW  OW  HW  HW  OW  HW  HW  
OW  HW  HW  OW  HW  HW  OW  HW  HW  OW  HW  HW  OW  HW  HW  OW  HW  HW  OW  HW  
HW  OW  HW  HW  OW  HW  HW  OW  HW  HW  OW  HW  HW  OW  HW  HW  OW  HW  HW  OW  
HW  HW  OW  HW  HW  OW  HW  HW  OW  HW  HW  OW  HW  HW  OW  HW  HW  OW  HW  HW  
OW  HW  HW  OW  HW  HW  OW  HW  HW  OW  HW  HW  OW  HW  HW  OW  HW  HW  OW  HW  
HW  OW  HW  HW  OW  HW  HW  OW  HW  HW  OW  HW  HW  OW  HW  HW  OW  HW  HW  OW  
HW  HW  OW  HW  HW  OW  HW  HW  OW  HW  HW  OW  HW  HW  OW  HW  HW  OW  HW  HW  
OW  HW  HW  OW  HW  HW  OW  HW  HW  OW  HW  HW  OW  HW  HW  OW  HW  HW  OW  HW  
HW  OW  HW  HW  OW  HW  HW  OW  HW  HW  OW  HW  HW  OW  HW  HW  OW  HW  HW  OW  
HW  HW  OW  HW  HW  OW  HW  HW  OW  HW  HW  OW  HW  HW  OW  HW  HW  OW  HW  HW  
OW  HW  HW  OW  HW  HW  OW  HW  HW  OW  HW  HW  OW  HW  HW  OW  HW  HW  OW  HW  
HW  OW  HW  HW  OW  HW  HW  OW  HW  HW  OW  HW  HW  OW  HW  HW  OW  HW  HW  OW  
HW  HW  OW  HW  HW  OW  HW  HW  OW  HW  HW  OW  HW  HW  OW  HW  HW  OW  HW  HW  
OW  HW  HW  OW  HW  HW  OW  HW  HW  OW  HW  HW  OW  HW  HW  OW  HW  HW  OW  HW  
HW  OW  HW  HW  OW  HW  HW  OW  HW  HW  OW  HW  HW  OW  HW  HW  OW  HW  HW  OW  
HW  HW  OW  HW  HW  OW  HW  HW  OW  HW  HW  OW  HW  HW  OW  HW  HW  OW  HW  HW  
OW  HW  HW  OW  HW  HW  OW  HW  HW  OW  HW  HW  OW  HW  HW  OW  HW  HW  OW  HW  
HW  OW  HW  HW  OW  HW  HW  OW  HW  HW  OW  HW  HW  OW  HW  HW  OW  HW  HW  OW  
HW  HW  OW  HW  HW  OW  HW  HW  OW  HW  HW  OW  HW  HW  OW  HW  HW  OW  HW  HW  
OW  HW  HW  OW  HW  HW  OW  HW  HW  OW  HW  HW  OW  HW  HW  OW  HW  HW  OW  HW  
HW  OW  HW  HW  OW  HW  HW  OW  HW  HW  OW  HW  HW  OW  HW  HW  OW  HW  HW  OW  
HW  HW  OW  HW  HW  OW  HW  HW  OW  HW  HW  OW  HW  HW  OW  HW  HW  OW  HW  HW  
OW  HW  HW  OW  HW  HW  OW  HW  HW  OW  HW  HW  OW  HW  HW  OW  HW  HW  OW  HW  
HW  OW  HW  HW  OW  HW  HW  OW  HW  HW  OW  HW  HW  OW  HW  HW  OW  HW  HW  OW  
HW  HW  OW  HW  HW  OW  HW  HW  OW  HW  HW  OW  HW  HW  OW  HW  HW  OW  HW  HW  
OW  HW  HW  OW  HW  HW  OW  HW  HW  OW  HW  HW  OW  HW  HW  OW  HW  HW  OW  HW  
HW  OW  HW  HW  OW  HW  HW  OW  HW  HW  OW  HW  HW  OW  HW  HW  OW  HW  HW  OW  
HW  HW  OW  HW  HW  OW  HW  HW  OW  HW  HW  OW  HW  HW  OW  HW  HW  OW  HW  HW  
OW  HW  HW  OW  HW  HW  OW  HW  HW  OW  HW  HW  OW  HW  HW  OW  HW  HW  OW  HW  
HW  OW  HW  HW  OW  HW  HW  OW  HW  HW  OW  HW  HW  OW  HW  HW  OW  HW  HW  OW  
HW  HW  OW  HW  HW  OW  HW  HW  OW  HW  HW  OW  HW  HW  OW  HW  HW  OW  HW  HW  
OW  HW  HW  OW  HW  HW  OW  HW  HW  OW  HW  HW  OW  HW  HW  OW  HW  HW  OW  HW  
HW  OW  HW  HW  OW  HW  HW  OW  HW  HW  OW  HW  HW  OW  HW  HW  OW  HW  HW  OW  
HW  HW  OW  HW  HW  OW  HW  HW  OW  HW  HW  OW  HW  HW  OW  HW  HW  OW  HW  HW  
OW  HW  HW  OW  HW  HW  OW  HW  HW  OW  HW  HW  OW  HW  HW  OW  HW  HW  OW  HW  
HW  OW  HW  HW  OW  HW  HW  OW  HW  HW  OW  HW  HW  OW  HW  HW  OW  HW  HW  OW  
HW  HW  OW  HW  HW  OW  HW  HW  OW  HW  HW  OW  HW  HW  OW  HW  HW  OW  HW  HW  
OW  HW  HW  OW  HW  HW  OW  HW  HW  OW  HW  HW  OW  HW  HW  OW  HW  HW  OW  HW  
HW  OW  HW  HW  OW  HW  HW  OW  HW  HW  OW  HW  HW  OW  HW  HW  OW  HW  HW  OW  
HW  HW  OW  HW  HW  OW  HW  HW  OW  HW  HW  OW  HW  HW  OW  HW  HW  OW  HW  HW  
OW  HW  HW  OW  HW  HW  OW  HW  HW  OW  HW  HW  OW  HW  HW  OW  HW  HW  OW  HW  
HW  OW  HW  HW  OW  HW  HW  OW  HW  HW  OW  HW  HW  OW  HW  HW  OW  HW  HW  OW  
HW  HW  OW  HW  HW  OW  HW  HW  OW  HW  HW  OW  HW  HW  OW  HW  HW  OW  HW  HW  
OW  HW  HW  OW  HW  HW  OW  HW  HW  OW  HW  HW  OW  HW  HW  OW  HW  HW  OW  HW  
HW  OW  HW  HW  OW  HW  HW  OW  HW  HW  OW  HW  HW  OW  HW  HW  OW  HW  HW  OW  
HW  HW  OW  HW  HW  OW  HW  HW  OW  HW  HW  OW  HW  HW  OW  HW  HW  OW  HW  HW  
OW  HW  HW  OW  HW  HW  OW  HW  HW  OW  HW  HW  OW  HW  HW  OW  HW  HW  OW  HW  
HW  OW  HW  HW  OW  HW  HW  OW  HW  HW  OW  HW  HW  OW  HW  HW  OW  HW  HW  OW  
HW  HW  OW  HW  HW  OW  HW  HW  OW  HW  HW  OW  HW  HW  OW  HW  HW  OW  HW  HW  
OW  HW  HW  OW  HW  HW  OW  HW  HW  OW  HW  HW  OW  HW  HW  OW  HW  HW  OW  HW  
HW  OW  HW  HW  OW  HW  HW  OW  HW  HW  OW  HW  HW  OW  HW  HW  OW  HW  HW  OW  
HW  HW  OW  HW  HW  OW  HW  HW  OW  HW  HW  OW  HW  HW  OW  HW  HW  OW  HW  HW  
OW  HW  HW  OW  HW  HW  OW  HW  HW  OW  HW  HW  OW  HW  HW  OW  HW  HW  OW  HW  
HW  OW  HW  HW  OW  HW  HW  OW  HW  HW  OW  HW  HW  OW  HW  HW  OW  HW  HW  OW  
HW  HW  OW  HW  HW  OW  HW  HW  OW  HW  HW  OW  HW  HW  OW  HW  HW  OW  HW  HW  
OW  HW  HW  OW  HW  HW  OW  HW  HW  OW  HW  HW  OW  HW  HW  OW  HW  HW  OW  HW  
HW  OW  HW  HW  OW  HW  HW  OW  HW  HW  OW  HW  HW  OW  HW  HW  OW  HW  HW  OW  
HW  HW  OW  HW  HW  OW  HW  HW  OW  HW  HW  OW  HW  HW  OW  HW  HW  OW  HW  HW  
OW  HW  HW  OW  HW  HW  OW  HW  HW  OW  HW  HW  OW  HW  HW  OW  HW  HW  OW  HW  
HW  OW  HW  HW  OW  HW  HW  OW  HW  HW  OW  HW  HW  OW  HW  HW  OW  HW  HW  OW  
HW  HW  OW  HW  HW  OW  HW  HW  OW  HW  HW  OW  HW  HW  OW  HW  HW  OW  HW  HW  
OW  HW  HW  OW  HW  HW  OW  HW  HW  OW  HW  HW  OW  HW  HW  OW  HW  HW  OW  HW  
HW  OW  HW  HW  OW  HW  HW  OW  HW  HW  OW  HW  HW  OW  HW  HW  OW  HW  HW  OW  
HW  HW  OW  HW  HW  OW  HW  HW  OW  HW  HW  OW  HW  HW  OW  HW  HW  OW  HW  HW  
OW  HW  HW  OW  HW  HW  OW  HW  HW  OW  HW  HW  OW  HW  HW  OW  HW  HW  OW  HW  
HW  OW  HW  HW  OW  HW  HW  OW  HW  HW  OW  HW  HW  OW  HW  HW  OW  HW  HW  OW  
HW  HW  OW  HW  HW  OW  HW  HW  OW  HW  HW  OW  HW  HW  OW  HW  HW  OW  HW  HW  
OW  HW  HW  OW  HW  HW  OW  HW  HW  OW  HW  HW  OW  HW  HW  OW  HW  HW  OW  HW  
HW  OW  HW  HW  OW  HW  HW  OW  HW  HW  OW  HW  HW  OW  HW  HW  OW  HW  HW  OW  
HW  HW  OW  HW  HW  OW  HW  HW  OW  HW  HW  OW  HW  HW  OW  HW  HW  OW  HW  HW  
OW  HW  HW  OW  HW  HW  OW  HW  HW  OW  HW  HW  OW  HW  HW  OW  HW  HW  OW  HW  
HW  OW  HW  HW  OW  HW  HW  OW  HW  HW  OW  HW  HW  OW  HW  HW  OW  HW  HW  OW  
HW  HW  OW  HW  HW  OW  HW  HW  OW  HW  HW  OW  HW  HW  OW  HW  HW  OW  HW  HW  
OW  HW  HW  OW  HW  HW  OW  HW  HW  OW  HW  HW  OW  HW  HW  OW  HW  HW  OW  HW  
HW  OW  HW  HW  OW  HW  HW  OW  HW  HW  OW  HW  HW  OW  HW  HW  OW  HW  HW  OW  
HW  HW  OW  HW  HW  OW  HW  HW  OW  HW  HW  OW  HW  HW  OW  HW  HW  OW  HW  HW  
OW  HW  HW  OW  HW  HW  OW  HW  HW  OW  HW  HW  OW  HW  HW  OW  HW  HW  OW  HW  
HW  OW  HW  HW  OW  HW  HW  OW  HW  HW  OW  HW  HW  OW  HW  HW  OW  HW  HW  OW  
HW  HW  OW  HW  HW  OW  HW  HW  OW  HW  HW  OW  HW  HW  OW  HW  HW  OW  HW  HW  
OW  HW  HW  OW  HW  HW  OW  HW  HW  OW  HW  HW  OW  HW  HW  OW  HW  HW  OW  HW  
HW  OW  HW  HW  OW  HW  HW  OW  HW  HW  OW  HW  HW  OW  HW  HW  OW  HW  HW  OW  
HW  HW  OW  HW  HW  OW  HW  HW  OW  HW  HW  OW  HW  HW  OW  HW  HW  OW  HW  HW  
OW  HW  HW  OW  HW  HW  OW  HW  HW  OW  HW  HW  OW  HW  HW  OW  HW  HW  OW  HW  
HW  OW  HW  HW  OW  HW  HW  OW  HW  HW  OW  HW  HW  OW  HW  HW  OW  HW  HW  OW  
HW  HW  OW  HW  HW  OW  HW  HW  OW  HW  HW  OW  HW  HW  OW  HW  HW  OW  HW  HW  
OW  HW  HW  OW  HW  HW  OW  HW  HW  OW  HW  HW  OW  HW  HW  OW  HW  HW  OW  HW  
HW  OW  HW  HW  OW  HW  HW  OW  HW  HW  OW  HW  HW  OW  HW  HW  OW  HW  HW  OW  
HW  HW  OW  HW  HW  OW  HW  HW  OW  HW  HW  OW  HW  HW  OW  HW  HW  OW  HW  HW  
OW  HW  HW  OW  HW  HW  OW  HW  HW  OW  HW  HW  OW  HW  HW  OW  HW  HW  OW  HW  
HW  OW  HW  HW  OW  HW  HW  OW  HW  HW  OW  HW  HW  OW  HW  HW  OW  HW  HW  OW  
HW  HW  OW  HW  HW  OW  HW  HW  OW  HW  HW  OW  HW  HW  OW  HW  HW  OW  HW  HW  
OW  HW  HW  OW  HW  HW  OW  HW  HW  OW  HW  HW  OW  HW  HW  OW  HW  HW  OW  HW  
HW  OW  HW  HW  OW  HW  HW  OW  HW  HW  OW  HW  HW  OW  HW  HW  OW  HW  HW  OW  
HW  HW  OW  HW  HW  OW  HW  HW  OW  HW  HW  OW  HW  HW  OW  HW  HW  OW  HW  HW  
OW  HW  HW  OW  HW  HW  OW  HW  HW  OW  HW  HW  OW  HW  HW  OW  HW  HW  OW  HW  
HW  OW  HW  HW  OW  HW  HW  OW  HW  HW  OW  HW  HW  OW  HW  HW  OW  HW  HW  OW  
HW  HW  OW  HW  HW  OW  HW  HW  OW  HW  HW  OW  HW  HW  OW  HW  HW  OW  HW  HW  
OW  HW  HW  OW  HW  HW  OW  HW  HW  OW  HW  HW  OW  HW  HW  OW  HW  HW  OW  HW  
HW  OW  HW  HW  OW  HW  HW  OW  HW  HW  OW  HW  HW  OW  HW  HW  OW  HW  HW  OW  
HW  HW  OW  HW  HW  OW  HW  HW  OW  HW  HW  OW  HW  HW  OW  HW  HW  OW  HW  HW  
OW  HW  HW  OW  HW  HW  OW  HW  HW  OW  HW  HW  OW  HW  HW  OW  HW  HW  OW  HW  
HW  OW  HW  HW  OW  HW  HW  OW  HW  HW  OW  HW  HW  OW  HW  HW  OW  HW  HW  OW  
HW  HW  OW  HW  HW  OW  HW  HW  OW  HW  HW  OW  HW  HW  OW  HW  HW  OW  HW  HW  
OW  HW  HW  OW  HW  HW  OW  HW  HW  OW  HW  HW  OW  HW  HW  OW  HW  HW  OW  HW  
HW  OW  HW  HW  OW  HW  HW  OW  HW  HW  OW  HW  HW  OW  HW  HW  OW  HW  HW  OW  
HW  HW  OW  HW  HW  OW  HW  HW  OW  HW  HW  OW  HW  HW  OW  HW  HW  OW  HW  HW  
OW  HW  HW  OW  HW  HW  OW  HW  HW  OW  HW  HW  OW  HW  HW  OW  HW  HW  OW  HW  
HW  OW  HW  HW  OW  HW  HW  OW  HW  HW  OW  HW  HW  OW  HW  HW  OW  HW  HW  OW  
HW  HW  OW  HW  HW  OW  HW  HW  OW  HW  HW  OW  HW  HW  OW  HW  HW  OW  HW  HW  
OW  HW  HW  OW  HW  HW  OW  HW  HW  OW  HW  HW  OW  HW  HW  OW  HW  HW  OW  HW  
HW  OW  HW  HW  OW  HW  HW  OW  HW  HW  OW  HW  HW  OW  HW  HW  OW  HW  HW  OW  
HW  HW  OW  HW  HW  OW  HW  HW  OW  HW  HW  OW  HW  HW  OW  HW  HW  OW  HW  HW  
OW  HW  HW  OW  HW  HW  OW  HW  HW  OW  HW  HW  OW  HW  HW  OW  HW  HW  OW  HW  
HW  OW  HW  HW  OW  HW  HW  OW  HW  HW  OW  HW  HW  OW  HW  HW  OW  HW  HW  OW  
HW  HW  OW  HW  HW  OW  HW  HW  OW  HW  HW  OW  HW  HW  OW  HW  HW  OW  HW  HW  
OW  HW  HW  OW  HW  HW  OW  HW  HW  OW  HW  HW  OW  HW  HW  OW  HW  HW  OW  HW  
HW  OW  HW  HW  OW  HW  HW  OW  HW  HW  OW  HW  HW  OW  HW  HW  OW  HW  HW  OW  
HW  HW  OW  HW  HW  OW  HW  HW  OW  HW  HW  OW  HW  HW  OW  HW  HW  OW  HW  HW  
OW  HW  HW  OW  HW  HW  OW  HW  HW  OW  HW  HW  OW  HW  HW  OW  HW  HW  OW  HW  
HW  OW  HW  HW  OW  HW  HW  OW  HW  HW  OW  HW  HW  OW  HW  HW  OW  HW  HW  OW  
HW  HW  OW  HW  HW  OW  HW  HW  OW  HW  HW  OW  HW  HW  OW  HW  HW  OW  HW  HW  
OW  HW  HW  OW  HW  HW  OW  HW  HW  OW  HW  HW  OW  HW  HW  OW  HW  HW  OW  HW  
HW  OW  HW  HW  OW  HW  HW  OW  HW  HW  OW  HW  HW  OW  HW  HW  OW  HW  HW  OW  
HW  HW  OW  HW  HW  OW  HW  HW  OW  HW  HW  OW  HW  HW  OW  HW  HW  OW  HW  HW  
OW  HW  HW  OW  HW  HW  OW  HW  HW  OW  HW  HW  OW  HW  HW  OW  HW  HW  OW  HW  
HW  OW  HW  HW  OW  HW  HW  OW  HW  HW  OW  HW  HW  OW  HW  HW  OW  HW  HW  OW  
HW  HW  OW  HW  HW  OW  HW  HW  OW  HW  HW  OW  HW  HW  OW  HW  HW  OW  HW  HW  
OW  HW  HW  OW  HW  HW  OW  HW  HW  OW  HW  HW  OW  HW  HW  OW  HW  HW  OW  HW  
HW  OW  HW  HW  OW  HW  HW  OW  HW  HW  OW  HW  HW  OW  HW  HW  OW  HW  HW  OW  
HW  HW  OW  HW  HW  OW  HW  HW  OW  HW  HW  OW  HW  HW  OW  HW  HW  OW  HW  HW  
OW  HW  HW  OW  HW  HW  OW  HW  HW  OW  HW  HW  OW  HW  HW  OW  HW  HW  OW  HW  
HW  OW  HW  HW  OW  HW  HW  OW  HW  HW  OW  HW  HW  OW  HW  HW  OW  HW  HW  OW  
HW  HW  OW  HW  HW  OW  HW  HW  OW  HW  HW  OW  HW  HW  OW  HW  HW  OW  HW  HW  
OW  HW  HW  OW  HW  HW  OW  HW  HW  OW  HW  HW  OW  HW  HW  OW  HW  HW  OW  HW  
HW  OW  HW  HW  OW  HW  HW  OW  HW  HW  OW  HW  HW  OW  HW  HW  OW  HW  HW  OW  
HW  HW  OW  HW  HW  OW  HW  HW  OW  HW  HW  OW  HW  HW  OW  HW  HW  OW  HW  HW  
OW  HW  HW  OW  HW  HW  OW  HW  HW  OW  HW  HW  OW  HW  HW  OW  HW  HW  OW  HW  
HW  OW  HW  HW  OW  HW  HW  OW  HW  HW  OW  HW  HW  OW  HW  HW  OW  HW  HW  OW  
HW  HW  OW  HW  HW  OW  HW  HW  OW  HW  HW  OW  HW  HW  OW  HW  HW  OW  HW  HW  
OW  HW  HW  OW  HW  HW  OW  HW  HW  OW  HW  HW  OW  HW  HW  OW  HW  HW  OW  HW  
HW  OW  HW  HW  OW  HW  HW  OW  HW  HW  OW  HW  HW  OW  HW  HW  OW  HW  HW  OW  
HW  HW  OW  HW  HW  OW  HW  HW  OW  HW  HW  OW  HW  HW  OW  HW  HW  OW  HW  HW  
OW  HW  HW  OW  HW  HW  OW  HW  HW  OW  HW  HW  OW  HW  HW  OW  HW  HW  OW  HW  
HW  OW  HW  HW  OW  HW  HW  OW  HW  HW  OW  HW  HW  OW  HW  HW  OW  HW  HW  OW  
HW  HW  OW  HW  HW  OW  HW  HW  OW  HW  HW  OW  HW  HW  OW  HW  HW  OW  HW  HW  
OW  HW  HW  OW  HW  HW  OW  HW  HW  OW  HW  HW  OW  HW  HW  OW  HW  HW  OW  HW  
HW  OW  HW  HW  OW  HW  HW  OW  HW  HW  OW  HW  HW  OW  HW  HW  OW  HW  HW  OW  
HW  HW  OW  HW  HW  OW  HW  HW  OW  HW  HW  OW  HW  HW  OW  HW  HW  OW  HW  HW  
OW  HW  HW  OW  HW  HW  OW  HW  HW  OW  HW  HW  OW  HW  HW  OW  HW  HW  OW  HW  
HW  OW  HW  HW  OW  HW  HW  OW  HW  HW  OW  HW  HW  OW  HW  HW  OW  HW  HW  OW  
HW  HW  OW  HW  HW  OW  HW  HW  OW  HW  HW  OW  HW  HW  OW  HW  HW  OW  HW  HW  
OW  HW  HW  OW  HW  HW  OW  HW  HW  OW  HW  HW  OW  HW  HW  OW  HW  HW  OW  HW  
HW  OW  HW  HW  OW  HW  HW  OW  HW  HW  OW  HW  HW  OW  HW  HW  OW  HW  HW  OW  
HW  HW  OW  HW  HW  OW  HW  HW  OW  HW  HW  OW  HW  HW  OW  HW  HW  OW  HW  HW  
OW  HW  HW  OW  HW  HW  OW  HW  HW  OW  HW  HW  OW  HW  HW  OW  HW  HW  OW  HW  
HW  OW  HW  HW  OW  HW  HW  OW  HW  HW  OW  HW  HW  OW  HW  HW  OW  HW  HW  OW  
HW  HW  OW  HW  HW  OW  HW  HW  OW  HW  HW  OW  HW  HW  OW  HW  HW  OW  HW  HW  
OW  HW  HW  OW  HW  HW  OW  HW  HW  OW  HW  HW  OW  HW  HW  OW  HW  HW  OW  HW  
HW  OW  HW  HW  OW  HW  HW  OW  HW  HW  OW  HW  HW  OW  HW  HW  OW  HW  HW  OW  
HW  HW  OW  HW  HW  OW  HW  HW  OW  HW  HW  OW  HW  HW  OW  HW  HW  OW  HW  HW  
OW  HW  HW  OW  HW  HW  OW  HW  HW  OW  HW  HW  OW  HW  HW  OW  HW  HW  OW  HW  
HW  OW  HW  HW  OW  HW  HW  OW  HW  HW  OW  HW  HW  OW  HW  HW  OW  HW  HW  OW  
HW  HW  OW  HW  HW  OW  HW  HW  OW  HW  HW  OW  HW  HW  OW  HW  HW  OW  HW  HW  
OW  HW  HW  OW  HW  HW  OW  HW  HW  OW  HW  HW  OW  HW  HW  OW  HW  HW  OW  HW  
HW  OW  HW  HW  OW  HW  HW  OW  HW  HW  OW  HW  HW  OW  HW  HW  OW  HW  HW  OW  
HW  HW  OW  HW  HW  OW  HW  HW  OW  HW  HW  OW  HW  HW  OW  HW  HW  OW  HW  HW  
OW  HW  HW  OW  HW  HW  OW  HW  HW  OW  HW  HW  OW  HW  HW  OW  HW  HW  OW  HW  
HW  OW  HW  HW  OW  HW  HW  OW  HW  HW  OW  HW  HW  OW  HW  HW  OW  HW  HW  OW  
HW  HW  OW  HW  HW  OW  HW  HW  OW  HW  HW  OW  HW  HW  OW  HW  HW  OW  HW  HW  
OW  HW  HW  OW  HW  HW  OW  HW  HW  OW  HW  HW  OW  HW  HW  OW  HW  HW  OW  HW  
HW  OW  HW  HW  OW  HW  HW  OW  HW  HW  OW  HW  HW  OW  HW  HW  OW  HW  HW  OW  
HW  HW  OW  HW  HW  OW  HW  HW  OW  HW  HW  OW  HW  HW  OW  HW  HW  OW  HW  HW  
OW  HW  HW  OW  HW  HW  OW  HW  HW  OW  HW  HW  OW  HW  HW  OW  HW  HW  OW  HW  
HW  OW  HW  HW  OW  HW  HW  OW  HW  HW  OW  HW  HW  OW  HW  HW  OW  HW  HW  OW  
HW  HW  OW  HW  HW  OW  HW  HW  OW  HW  HW  OW  HW  HW  OW  HW  HW  OW  HW  HW  
OW  HW  HW  OW  HW  HW  OW  HW  HW  OW  HW  HW  OW  HW  HW  OW  HW  HW  OW  HW  
HW  OW  HW  HW  OW  HW  HW  OW  HW  HW  OW  HW  HW  OW  HW  HW  OW  HW  HW  OW  
HW  HW  OW  HW  HW  OW  HW  HW  OW  HW  HW  OW  HW  HW  OW  HW  HW  OW  HW  HW  
OW  HW  HW  OW  HW  HW  OW  HW  HW  OW  HW  HW  OW  HW  HW  OW  HW  HW  OW  HW  
HW  OW  HW  HW  OW  HW  HW  OW  HW  HW  OW  HW  HW  OW  HW  HW  OW  HW  HW  OW  
HW  HW  OW  HW  HW  OW  HW  HW  OW  HW  HW  OW  HW  HW  OW  HW  HW  OW  HW  HW  
OW  HW  HW  OW  HW  HW  OW  HW  HW  OW  HW  HW  OW  HW  HW  OW  HW  HW  OW  HW  
HW  OW  HW  HW  OW  HW  HW  OW  HW  HW  OW  HW  HW  OW  HW  HW  OW  HW  HW  OW  
HW  HW  OW  HW  HW  OW  HW  HW  OW  HW  HW  OW  HW  HW  OW  HW  HW  OW  HW  HW  
OW  HW  HW  OW  HW  HW  OW  HW  HW  OW  HW  HW  OW  HW  HW  OW  HW  HW  OW  HW  
HW  OW  HW  HW  OW  HW  HW  OW  HW  HW  OW  HW  HW  OW  HW  HW  OW  HW  HW  OW  
HW  HW  OW  HW  HW  OW  HW  HW  OW  HW  HW  OW  HW  HW  OW  HW  HW  OW  HW  HW  
OW  HW  HW  OW  HW  HW  OW  HW  HW  OW  HW  HW  OW  HW  HW  OW  HW  HW  OW  HW  
HW  OW  HW  HW  OW  HW  HW  OW  HW  HW  OW  HW  HW  OW  HW  HW  OW  HW  HW  OW  
HW  HW  OW  HW  HW  OW  HW  HW  OW  HW  HW  OW  HW  HW  OW  HW  HW  OW  HW  HW  
OW  HW  HW  OW  HW  HW  OW  HW  HW  OW  HW  HW  OW  HW  HW  OW  HW  HW  OW  HW  
HW  OW  HW  HW  OW  HW  HW  OW  HW  HW  OW  HW  HW  OW  HW  HW  OW  HW  HW  OW  
HW  HW  OW  HW  HW  OW  HW  HW  OW  HW  HW  OW  HW  HW  OW  HW  HW  OW  HW  HW  
OW  HW  HW  OW  HW  HW  OW  HW  HW  OW  HW  HW  OW  HW  HW  OW  HW  HW  OW  HW  
HW  OW  HW  HW  OW  HW  HW  OW  HW  HW  OW  HW  HW  OW  HW  HW  OW  HW  HW  OW  
HW  HW  OW  HW  HW  OW  HW  HW  OW  HW  HW  OW  HW  HW  OW  HW  HW  OW  HW  HW  
OW  HW  HW  OW  HW  HW  OW  HW  HW  OW  HW  HW  OW  HW  HW  OW  HW  HW  OW  HW  
HW  OW  HW  HW  OW  HW  HW  OW  HW  HW  OW  HW  HW  OW  HW  HW  OW  HW  HW  OW  
HW  HW  OW  HW  HW  OW  HW  HW  OW  HW  HW  OW  HW  HW  OW  HW  HW  OW  HW  HW  
OW  HW  HW  OW  HW  HW  OW  HW  HW  OW  HW  HW  OW  HW  HW  OW  HW  HW  OW  HW  
HW  OW  HW  HW  OW  HW  HW  OW  HW  HW  OW  HW  HW  OW  HW  HW  OW  HW  HW  OW  
HW  HW  OW  HW  HW  OW  HW  HW  OW  HW  HW  OW  HW  HW  OW  HW  HW  OW  HW  HW  
OW  HW  HW  OW  HW  HW  OW  HW  HW  OW  HW  HW  OW  HW  HW  OW  HW  HW  OW  HW  
HW  OW  HW  HW  OW  HW  HW  OW  HW  HW  OW  HW  HW  OW  HW  HW  OW  HW  HW  OW  
HW  HW  OW  HW  HW  OW  HW  HW  OW  HW  HW  OW  HW  HW  OW  HW  HW  OW  HW  HW  
OW  HW  HW  OW  HW  HW  OW  HW  HW  OW  HW  HW  OW  HW  HW  OW  HW  HW  OW  HW  
HW  OW  HW  HW  OW  HW  HW  OW  HW  HW  OW  HW  HW  OW  HW  HW  OW  HW  HW  OW  
HW  HW  OW  HW  HW  OW  HW  HW  OW  HW  HW  OW  HW  HW  OW  HW  HW  OW  HW  HW  
OW  HW  HW  OW  HW  HW  OW  HW  HW  OW  HW  HW  OW  HW  HW  OW  HW  HW  OW  HW  
HW  OW  HW  HW  OW  HW  HW  OW  HW  HW  OW  HW  HW  OW  HW  HW  OW  HW  HW  OW  
HW  HW  OW  HW  HW  OW  HW  HW  OW  HW  HW  OW  HW  HW  OW  HW  HW  OW  HW  HW  
OW  HW  HW  OW  HW  HW  OW  HW  HW  OW  HW  HW  OW  HW  HW  OW  HW  HW  OW  HW  
HW  OW  HW  HW  OW  HW  HW  OW  HW  HW  OW  HW  HW  OW  HW  HW  OW  HW  HW  OW  
HW  HW  OW  HW  HW  OW  HW  HW  OW  HW  HW  OW  HW  HW  OW  HW  HW  OW  HW  HW  
OW  HW  HW  OW  HW  HW  OW  HW  HW  OW  HW  HW  OW  HW  HW  OW  HW  HW  OW  HW  
HW  OW  HW  HW  OW  HW  HW  OW  HW  HW  OW  HW  HW  OW  HW  HW  OW  HW  HW  OW  
HW  HW  OW  HW  HW  OW  HW  HW  OW  HW  HW  OW  HW  HW  OW  HW  HW  OW  HW  HW  
OW  HW  HW  OW  HW  HW  OW  HW  HW  OW  HW  HW  OW  HW  HW  OW  HW  HW  OW  HW  
HW  OW  HW  HW  OW  HW  HW  OW  HW  HW  OW  HW  HW  OW  HW  HW  OW  HW  HW  OW  
HW  HW  OW  HW  HW  OW  HW  HW  OW  HW  HW  OW  HW  HW  OW  HW  HW  OW  HW  HW  
OW  HW  HW  OW  HW  HW  OW  HW  HW  OW  HW  HW  OW  HW  HW  OW  HW  HW  OW  HW  
HW  OW  HW  HW  OW  HW  HW  OW  HW  HW  OW  HW  HW  OW  HW  HW  OW  HW  HW  OW  
HW  HW  OW  HW  HW  OW  HW  HW  OW  HW  HW  OW  HW  HW  OW  HW  HW  OW  HW  HW  
OW  HW  HW  OW  HW  HW  OW  HW  HW  OW  HW  HW  OW  HW  HW  OW  HW  HW  OW  HW  
HW  OW  HW  HW  OW  HW  HW  OW  HW  HW  OW  HW  HW  OW  HW  HW  OW  HW  HW  OW  
HW  HW  OW  HW  HW  OW  HW  HW  OW  HW  HW  OW  HW  HW  OW  HW  HW  OW  HW  HW  
OW  HW  HW  OW  HW  HW  OW  HW  HW  OW  HW  HW  OW  HW  HW  OW  HW  HW  OW  HW  
HW  OW  HW  HW  OW  HW  HW  OW  HW  HW  OW  HW  HW  OW  HW  HW  OW  HW  HW  OW  
HW  HW  OW  HW  HW  OW  HW  HW  OW  HW  HW  OW  HW  HW  OW  HW  HW  OW  HW  HW  
OW  HW  HW  OW  HW  HW  OW  HW  HW  OW  HW  HW  OW  HW  HW  OW  HW  HW  OW  HW  
HW  OW  HW  HW  OW  HW  HW  OW  HW  HW  OW  HW  HW  OW  HW  HW  OW  HW  HW  OW  
HW  HW  OW  HW  HW  OW  HW  HW  OW  HW  HW  OW  HW  HW  OW  HW  HW  OW  HW  HW  
OW  HW  HW  OW  HW  HW  OW  HW  HW  OW  HW  HW  OW  HW  HW  OW  HW  HW  OW  HW  
HW  OW  HW  HW  OW  HW  HW  OW  HW  HW  OW  HW  HW  OW  HW  HW  OW  HW  HW  OW  
HW  HW  OW  HW  HW  OW  HW  HW  OW  HW  HW  OW  HW  HW  OW  HW  HW  OW  HW  HW  
OW  HW  HW  OW  HW  HW  OW  HW  HW  OW  HW  HW  OW  HW  HW  OW  HW  HW  OW  HW  
HW  OW  HW  HW  OW  HW  HW  OW  HW  HW  OW  HW  HW  OW  HW  HW  OW  HW  HW  OW  
HW  HW  OW  HW  HW  OW  HW  HW  OW  HW  HW  OW  HW  HW  OW  HW  HW  OW  HW  HW  
OW  HW  HW  OW  HW  HW  OW  HW  HW  OW  HW  HW  OW  HW  HW  OW  HW  HW  OW  HW  
HW  OW  HW  HW  OW  HW  HW  OW  HW  HW  OW  HW  HW  OW  HW  HW  OW  HW  HW  OW  
HW  HW  OW  HW  HW  OW  HW  HW  OW  HW  HW  OW  HW  HW  OW  HW  HW  OW  HW  HW  
OW  HW  HW  OW  HW  HW  OW  HW  HW  OW  HW  HW  OW  HW  HW  OW  HW  HW  OW  HW  
HW  OW  HW  HW  OW  HW  HW  OW  HW  HW  OW  HW  HW  OW  HW  HW  OW  HW  HW  OW  
HW  HW  OW  HW  HW  OW  HW  HW  OW  HW  HW  OW  HW  HW  OW  HW  HW  OW  HW  HW  
OW  HW  HW  OW  HW  HW  OW  HW  HW  OW  HW  HW  OW  HW  HW  OW  HW  HW  OW  HW  
HW  OW  HW  HW  OW  HW  HW  OW  HW  HW  OW  HW  HW  OW  HW  HW  OW  HW  HW  OW  
HW  HW  OW  HW  HW  OW  HW  HW  OW  HW  HW  OW  HW  HW  OW  HW  HW  OW  HW  HW  
OW  HW  HW  OW  HW  HW  OW  HW  HW  OW  HW  HW  OW  HW  HW  OW  HW  HW  OW  HW  
HW  OW  HW  HW  OW  HW  HW  OW  HW  HW  OW  HW  HW  OW  HW  HW  OW  HW  HW  OW  
HW  HW  OW  HW  HW  OW  HW  HW  
%FLAG TREE_CHAIN_CLASSIFICATION                                                 
%FORMAT(20a4)                                                                   
BLA BLA BLA BLA BLA BLA BLA BLA BLA M   E   M   E   3   E   E   B   B   E   B   
E   B   S   E   S   E   S   E   M   E   M   E   M   E   3   E   E   B   E   E   
M   E   M   3   E   E   3   E   E   B   E   E   M   E   M   E   M   E   M   E   
3   E   E   3   E   E   B   E   E   M   E   M   E   M   E   3   E   3   E   E   
E   S   E   M   E   M   E   M   E   E   M   E   M   E   M   E   3   E   3   E   
E   E   S   E   M   E   M   E   M   E   3   E   E   B   B   E   B   E   S   B   
E   B   E   B   E   S   E   E   M   E   BLA BLA BLA BLA BLA BLA BLA BLA M   M   
BLA BLA BLA BLA BLA BLA BLA BLA BLA BLA BLA BLA BLA BLA BLA BLA BLA BLA BLA BLA 
BLA BLA BLA BLA BLA BLA BLA BLA BLA BLA BLA BLA BLA BLA BLA BLA BLA BLA BLA BLA 
BLA BLA BLA BLA BLA BLA BLA BLA BLA BLA BLA BLA BLA BLA BLA BLA BLA BLA BLA BLA 
BLA BLA BLA BLA BLA BLA BLA BLA BLA BLA BLA BLA BLA BLA BLA BLA BLA BLA BLA BLA 
BLA BLA BLA BLA BLA BLA BLA BLA BLA BLA BLA BLA BLA BLA BLA BLA BLA BLA BLA BLA 
BLA BLA BLA BLA BLA BLA BLA BLA BLA BLA BLA BLA BLA BLA BLA BLA BLA BLA BLA BLA 
BLA BLA BLA BLA BLA BLA BLA BLA BLA BLA BLA BLA BLA BLA BLA BLA BLA BLA BLA BLA 
BLA BLA BLA BLA BLA BLA BLA BLA BLA BLA BLA BLA BLA BLA BLA BLA BLA BLA BLA BLA 
BLA BLA BLA BLA BLA BLA BLA BLA BLA BLA BLA BLA BLA BLA BLA BLA BLA BLA BLA BLA 
BLA BLA BLA BLA BLA BLA BLA BLA BLA BLA BLA BLA BLA BLA BLA BLA BLA BLA BLA BLA 
BLA BLA BLA BLA BLA BLA BLA BLA BLA BLA BLA BLA BLA BLA BLA BLA BLA BLA BLA BLA 
BLA BLA BLA BLA BLA BLA BLA BLA BLA BLA BLA BLA BLA BLA BLA BLA BLA BLA BLA BLA 
BLA BLA BLA BLA BLA BLA BLA BLA BLA BLA BLA BLA BLA BLA BLA BLA BLA BLA BLA BLA 
BLA BLA BLA BLA BLA BLA BLA BLA BLA BLA BLA BLA BLA BLA BLA BLA BLA BLA BLA BLA 
BLA BLA BLA BLA BLA BLA BLA BLA BLA BLA BLA BLA BLA BLA BLA BLA BLA BLA BLA BLA 
BLA BLA BLA BLA BLA BLA BLA BLA BLA BLA BLA BLA BLA BLA BLA BLA BLA BLA BLA BLA 
BLA BLA BLA BLA BLA BLA BLA BLA BLA BLA BLA BLA BLA BLA BLA BLA BLA BLA BLA BLA 
BLA BLA BLA BLA BLA BLA BLA BLA BLA BLA BLA BLA BLA BLA BLA BLA BLA BLA BLA BLA 
BLA BLA BLA BLA BLA BLA BLA BLA BLA BLA BLA BLA BLA BLA BLA BLA BLA BLA BLA BLA 
BLA BLA BLA BLA BLA BLA BLA BLA BLA BLA BLA BLA BLA BLA BLA BLA BLA BLA BLA BLA 
BLA BLA BLA BLA BLA BLA BLA BLA BLA BLA BLA BLA BLA BLA BLA BLA BLA BLA BLA BLA 
BLA BLA BLA BLA BLA BLA BLA BLA BLA BLA BLA BLA BLA BLA BLA BLA BLA BLA BLA BLA 
BLA BLA BLA BLA BLA BLA BLA BLA BLA BLA BLA BLA BLA BLA BLA BLA BLA BLA BLA BLA 
BLA BLA BLA BLA BLA BLA BLA BLA BLA BLA BLA BLA BLA BLA BLA BLA BLA BLA BLA BLA 
BLA BLA BLA BLA BLA BLA BLA BLA BLA BLA BLA BLA BLA BLA BLA BLA BLA BLA BLA BLA 
BLA BLA BLA BLA BLA BLA BLA BLA BLA BLA BLA BLA BLA BLA BLA BLA BLA BLA BLA BLA 
BLA BLA BLA BLA BLA BLA BLA BLA BLA BLA BLA BLA BLA BLA BLA BLA BLA BLA BLA BLA 
BLA BLA BLA BLA BLA BLA BLA BLA BLA BLA BLA BLA BLA BLA BLA BLA BLA BLA BLA BLA 
BLA BLA BLA BLA BLA BLA BLA BLA BLA BLA BLA BLA BLA BLA BLA BLA BLA BLA BLA BLA 
BLA BLA BLA BLA BLA BLA BLA BLA BLA BLA BLA BLA BLA BLA BLA BLA BLA BLA BLA BLA 
BLA BLA BLA BLA BLA BLA BLA BLA BLA BLA BLA BLA BLA BLA BLA BLA BLA BLA BLA BLA 
BLA BLA BLA BLA BLA BLA BLA BLA BLA BLA BLA BLA BLA BLA BLA BLA BLA BLA BLA BLA 
BLA BLA BLA BLA BLA BLA BLA BLA BLA BLA BLA BLA BLA BLA BLA BLA BLA BLA BLA BLA 
BLA BLA BLA BLA BLA BLA BLA BLA BLA BLA BLA BLA BLA BLA BLA BLA BLA BLA BLA BLA 
BLA BLA BLA BLA BLA BLA BLA BLA BLA BLA BLA BLA BLA BLA BLA BLA BLA BLA BLA BLA 
BLA BLA BLA BLA BLA BLA BLA BLA BLA BLA BLA BLA BLA BLA BLA BLA BLA BLA BLA BLA 
BLA BLA BLA BLA BLA BLA BLA BLA BLA BLA BLA BLA BLA BLA BLA BLA BLA BLA BLA BLA 
BLA BLA BLA BLA BLA BLA BLA BLA BLA BLA BLA BLA BLA BLA BLA BLA BLA BLA BLA BLA 
BLA BLA BLA BLA BLA BLA BLA BLA BLA BLA BLA BLA BLA BLA BLA BLA BLA BLA BLA BLA 
BLA BLA BLA BLA BLA BLA BLA BLA BLA BLA BLA BLA BLA BLA BLA BLA BLA BLA BLA BLA 
BLA BLA BLA BLA BLA BLA BLA BLA BLA BLA BLA BLA BLA BLA BLA BLA BLA BLA BLA BLA 
BLA BLA BLA BLA BLA BLA BLA BLA BLA BLA BLA BLA BLA BLA BLA BLA BLA BLA BLA BLA 
BLA BLA BLA BLA BLA BLA BLA BLA BLA BLA BLA BLA BLA BLA BLA BLA BLA BLA BLA BLA 
BLA BLA BLA BLA BLA BLA BLA BLA BLA BLA BLA BLA BLA BLA BLA BLA BLA BLA BLA BLA 
BLA BLA BLA BLA BLA BLA BLA BLA BLA BLA BLA BLA BLA BLA BLA BLA BLA BLA BLA BLA 
BLA BLA BLA BLA BLA BLA BLA BLA BLA BLA BLA BLA BLA BLA BLA BLA BLA BLA BLA BLA 
BLA BLA BLA BLA BLA BLA BLA BLA BLA BLA BLA BLA BLA BLA BLA BLA BLA BLA BLA BLA 
BLA BLA BLA BLA BLA BLA BLA BLA BLA BLA BLA BLA BLA BLA BLA BLA BLA BLA BLA BLA 
BLA BLA BLA BLA BLA BLA BLA BLA BLA BLA BLA BLA BLA BLA BLA BLA BLA BLA BLA BLA 
BLA BLA BLA BLA BLA BLA BLA BLA BLA BLA BLA BLA BLA BLA BLA BLA BLA BLA BLA BLA 
BLA BLA BLA BLA BLA BLA BLA BLA BLA BLA BLA BLA BLA BLA BLA BLA BLA BLA BLA BLA 
BLA BLA BLA BLA BLA BLA BLA BLA BLA BLA BLA BLA BLA BLA BLA BLA BLA BLA BLA BLA 
BLA BLA BLA BLA BLA BLA BLA BLA BLA BLA BLA BLA BLA BLA BLA BLA BLA BLA BLA BLA 
BLA BLA BLA BLA BLA BLA BLA BLA BLA BLA BLA BLA BLA BLA BLA BLA BLA BLA BLA BLA 
BLA BLA BLA BLA BLA BLA BLA BLA BLA BLA BLA BLA BLA BLA BLA BLA BLA BLA BLA BLA 
BLA BLA BLA BLA BLA BLA BLA BLA BLA BLA BLA BLA BLA BLA BLA BLA BLA BLA BLA BLA 
BLA BLA BLA BLA BLA BLA BLA BLA BLA BLA BLA BLA BLA BLA BLA BLA BLA BLA BLA BLA 
BLA BLA BLA BLA BLA BLA BLA BLA BLA BLA BLA BLA BLA BLA BLA BLA BLA BLA BLA BLA 
BLA BLA BLA BLA BLA BLA BLA BLA BLA BLA BLA BLA BLA BLA BLA BLA BLA BLA BLA BLA 
BLA BLA BLA BLA BLA BLA BLA BLA BLA BLA BLA BLA BLA BLA BLA BLA BLA BLA BLA BLA 
BLA BLA BLA BLA BLA BLA BLA BLA BLA BLA BLA BLA BLA BLA BLA BLA BLA BLA BLA BLA 
BLA BLA BLA BLA BLA BLA BLA BLA BLA BLA BLA BLA BLA BLA BLA BLA BLA BLA BLA BLA 
BLA BLA BLA BLA BLA BLA BLA BLA BLA BLA BLA BLA BLA BLA BLA BLA BLA BLA BLA BLA 
BLA BLA BLA BLA BLA BLA BLA BLA BLA BLA BLA BLA BLA BLA BLA BLA BLA BLA BLA BLA 
BLA BLA BLA BLA BLA BLA BLA BLA BLA BLA BLA BLA BLA BLA BLA BLA BLA BLA BLA BLA 
BLA BLA BLA BLA BLA BLA BLA BLA BLA BLA BLA BLA BLA BLA BLA BLA BLA BLA BLA BLA 
BLA BLA BLA BLA BLA BLA BLA BLA BLA BLA BLA BLA BLA BLA BLA BLA BLA BLA BLA BLA 
BLA BLA BLA BLA BLA BLA BLA BLA BLA BLA BLA BLA BLA BLA BLA BLA BLA BLA BLA BLA 
BLA BLA BLA BLA BLA BLA BLA BLA BLA BLA BLA BLA BLA BLA BLA BLA BLA BLA BLA BLA 
BLA BLA BLA BLA BLA BLA BLA BLA BLA BLA BLA BLA BLA BLA BLA BLA BLA BLA BLA BLA 
BLA BLA BLA BLA BLA BLA BLA BLA BLA BLA BLA BLA BLA BLA BLA BLA BLA BLA BLA BLA 
BLA BLA BLA BLA BLA BLA BLA BLA BLA BLA BLA BLA BLA BLA BLA BLA BLA BLA BLA BLA 
BLA BLA BLA BLA BLA BLA BLA BLA BLA BLA BLA BLA BLA BLA BLA BLA BLA BLA BLA BLA 
BLA BLA BLA BLA BLA BLA BLA BLA BLA BLA BLA BLA BLA BLA BLA BLA BLA BLA BLA BLA 
BLA BLA BLA BLA BLA BLA BLA BLA BLA BLA BLA BLA BLA BLA BLA BLA BLA BLA BLA BLA 
BLA BLA BLA BLA BLA BLA BLA BLA BLA BLA BLA BLA BLA BLA BLA BLA BLA BLA BLA BLA 
BLA BLA BLA BLA BLA BLA BLA BLA BLA BLA BLA BLA BLA BLA BLA BLA BLA BLA BLA BLA 
BLA BLA BLA BLA BLA BLA BLA BLA BLA BLA BLA BLA BLA BLA BLA BLA BLA BLA BLA BLA 
BLA BLA BLA BLA BLA BLA BLA BLA BLA BLA BLA BLA BLA BLA BLA BLA BLA BLA BLA BLA 
BLA BLA BLA BLA BLA BLA BLA BLA BLA BLA BLA BLA BLA BLA BLA BLA BLA BLA BLA BLA 
BLA BLA BLA BLA BLA BLA BLA BLA BLA BLA BLA BLA BLA BLA BLA BLA BLA BLA BLA BLA 
BLA BLA BLA BLA BLA BLA BLA BLA BLA BLA BLA BLA BLA BLA BLA BLA BLA BLA BLA BLA 
BLA BLA BLA BLA BLA BLA BLA BLA BLA BLA BLA BLA BLA BLA BLA BLA BLA BLA BLA BLA 
BLA BLA BLA BLA BLA BLA BLA BLA BLA BLA BLA BLA BLA BLA BLA BLA BLA BLA BLA BLA 
BLA BLA BLA BLA BLA BLA BLA BLA BLA BLA BLA BLA BLA BLA BLA BLA BLA BLA BLA BLA 
BLA BLA BLA BLA BLA BLA BLA BLA BLA BLA BLA BLA BLA BLA BLA BLA BLA BLA BLA BLA 
BLA BLA BLA BLA BLA BLA BLA BLA BLA BLA BLA BLA BLA BLA BLA BLA BLA BLA BLA BLA 
BLA BLA BLA BLA BLA BLA BLA BLA BLA BLA BLA BLA BLA BLA BLA BLA BLA BLA BLA BLA 
BLA BLA BLA BLA BLA BLA BLA BLA BLA BLA BLA BLA BLA BLA BLA BLA BLA BLA BLA BLA 
BLA BLA BLA BLA BLA BLA BLA BLA BLA BLA BLA BLA BLA BLA BLA BLA BLA BLA BLA BLA 
BLA BLA BLA BLA BLA BLA BLA BLA BLA BLA BLA BLA BLA BLA BLA BLA BLA BLA BLA BLA 
BLA BLA BLA BLA BLA BLA BLA BLA BLA BLA BLA BLA BLA BLA BLA BLA BLA BLA BLA BLA 
BLA BLA BLA BLA BLA BLA BLA BLA BLA BLA BLA BLA BLA BLA BLA BLA BLA BLA BLA BLA 
BLA BLA BLA BLA BLA BLA BLA BLA BLA BLA BLA BLA BLA BLA BLA BLA BLA BLA BLA BLA 
BLA BLA BLA BLA BLA BLA BLA BLA BLA BLA BLA BLA BLA BLA BLA BLA BLA BLA BLA BLA 
BLA BLA BLA BLA BLA BLA BLA BLA BLA BLA BLA BLA BLA BLA BLA BLA BLA BLA BLA BLA 
BLA BLA BLA BLA BLA BLA BLA BLA BLA BLA BLA BLA BLA BLA BLA BLA BLA BLA BLA BLA 
BLA BLA BLA BLA BLA BLA BLA BLA BLA BLA BLA BLA BLA BLA BLA BLA BLA BLA BLA BLA 
BLA BLA BLA BLA BLA BLA BLA BLA BLA BLA BLA BLA BLA BLA BLA BLA BLA BLA BLA BLA 
BLA BLA BLA BLA BLA BLA BLA BLA BLA BLA BLA BLA BLA BLA BLA BLA BLA BLA BLA BLA 
BLA BLA BLA BLA BLA BLA BLA BLA BLA BLA BLA BLA BLA BLA BLA BLA BLA BLA BLA BLA 
BLA BLA BLA BLA BLA BLA BLA BLA BLA BLA BLA BLA BLA BLA BLA BLA BLA BLA BLA BLA 
BLA BLA BLA BLA BLA BLA BLA BLA BLA BLA BLA BLA BLA BLA BLA BLA BLA BLA BLA BLA 
BLA BLA BLA BLA BLA BLA BLA BLA BLA BLA BLA BLA BLA BLA BLA BLA BLA BLA BLA BLA 
BLA BLA BLA BLA BLA BLA BLA BLA BLA BLA BLA BLA BLA BLA BLA BLA BLA BLA BLA BLA 
BLA BLA BLA BLA BLA BLA BLA BLA BLA BLA BLA BLA BLA BLA BLA BLA BLA BLA BLA BLA 
BLA BLA BLA BLA BLA BLA BLA BLA BLA BLA BLA BLA BLA BLA BLA BLA BLA BLA BLA BLA 
BLA BLA BLA BLA BLA BLA BLA BLA BLA BLA BLA BLA BLA BLA BLA BLA BLA BLA BLA BLA 
BLA BLA BLA BLA BLA BLA BLA BLA BLA BLA BLA BLA BLA BLA BLA BLA BLA BLA BLA BLA 
BLA BLA BLA BLA BLA BLA BLA BLA BLA BLA BLA BLA BLA BLA BLA BLA BLA BLA BLA BLA 
BLA BLA BLA BLA BLA BLA BLA BLA BLA BLA BLA BLA BLA BLA BLA BLA BLA BLA BLA BLA 
BLA BLA BLA BLA BLA BLA BLA BLA BLA BLA BLA BLA BLA BLA BLA BLA BLA BLA BLA BLA 
BLA BLA BLA BLA BLA BLA BLA BLA BLA BLA BLA BLA BLA BLA BLA BLA BLA BLA BLA BLA 
BLA BLA BLA BLA BLA BLA BLA BLA BLA BLA BLA BLA BLA BLA BLA BLA BLA BLA BLA BLA 
BLA BLA BLA BLA BLA BLA BLA BLA BLA BLA BLA BLA BLA BLA BLA BLA BLA BLA BLA BLA 
BLA BLA BLA BLA BLA BLA BLA BLA BLA BLA BLA BLA BLA BLA BLA BLA BLA BLA BLA BLA 
BLA BLA BLA BLA BLA BLA BLA BLA BLA BLA BLA BLA BLA BLA BLA BLA BLA BLA BLA BLA 
BLA BLA BLA BLA BLA BLA BLA BLA BLA BLA BLA BLA BLA BLA BLA BLA BLA BLA BLA BLA 
BLA BLA BLA BLA BLA BLA BLA BLA BLA BLA BLA BLA BLA BLA BLA BLA BLA BLA BLA BLA 
BLA BLA BLA BLA BLA BLA BLA BLA BLA BLA BLA BLA BLA BLA BLA BLA BLA BLA BLA BLA 
BLA BLA BLA BLA BLA BLA BLA BLA BLA BLA BLA BLA BLA BLA BLA BLA BLA BLA BLA BLA 
BLA BLA BLA BLA BLA BLA BLA BLA BLA BLA BLA BLA BLA BLA BLA BLA BLA BLA BLA BLA 
BLA BLA BLA BLA BLA BLA BLA BLA BLA BLA BLA BLA BLA BLA BLA BLA BLA BLA BLA BLA 
BLA BLA BLA BLA BLA BLA BLA BLA BLA BLA BLA BLA BLA BLA BLA BLA BLA BLA BLA BLA 
BLA BLA BLA BLA BLA BLA BLA BLA BLA BLA BLA BLA BLA BLA BLA BLA BLA BLA BLA BLA 
BLA BLA BLA BLA BLA BLA BLA BLA BLA BLA BLA BLA BLA BLA BLA BLA BLA BLA BLA BLA 
BLA BLA BLA BLA BLA BLA BLA BLA BLA BLA BLA BLA BLA BLA BLA BLA BLA BLA BLA BLA 
BLA BLA BLA BLA BLA BLA BLA BLA BLA BLA BLA BLA BLA BLA BLA BLA BLA BLA BLA BLA 
BLA BLA BLA BLA BLA BLA BLA BLA BLA BLA BLA BLA BLA BLA BLA BLA BLA BLA BLA BLA 
BLA BLA BLA BLA BLA BLA BLA BLA BLA BLA BLA BLA BLA BLA BLA BLA BLA BLA BLA BLA 
BLA BLA BLA BLA BLA BLA BLA BLA BLA BLA BLA BLA BLA BLA BLA BLA BLA BLA BLA BLA 
BLA BLA BLA BLA BLA BLA BLA BLA BLA BLA BLA BLA BLA BLA BLA BLA BLA BLA BLA BLA 
BLA BLA BLA BLA BLA BLA BLA BLA BLA BLA BLA BLA BLA BLA BLA BLA BLA BLA BLA BLA 
BLA BLA BLA BLA BLA BLA BLA BLA BLA BLA BLA BLA BLA BLA BLA BLA BLA BLA BLA BLA 
BLA BLA BLA BLA BLA BLA BLA BLA BLA BLA BLA BLA BLA BLA BLA BLA BLA BLA BLA BLA 
BLA BLA BLA BLA BLA BLA BLA BLA BLA BLA BLA BLA BLA BLA BLA BLA BLA BLA BLA BLA 
BLA BLA BLA BLA BLA BLA BLA BLA BLA BLA BLA BLA BLA BLA BLA BLA BLA BLA BLA BLA 
BLA BLA BLA BLA BLA BLA BLA BLA BLA BLA BLA BLA BLA BLA BLA BLA BLA BLA BLA BLA 
BLA BLA BLA BLA BLA BLA BLA BLA BLA BLA BLA BLA BLA BLA BLA BLA BLA BLA BLA BLA 
BLA BLA BLA BLA BLA BLA BLA BLA BLA BLA BLA BLA BLA BLA BLA BLA BLA BLA BLA BLA 
BLA BLA BLA BLA BLA BLA BLA BLA BLA BLA BLA BLA BLA BLA BLA BLA BLA BLA BLA BLA 
BLA BLA BLA BLA BLA BLA BLA BLA BLA BLA BLA BLA BLA BLA BLA BLA BLA BLA BLA BLA 
BLA BLA BLA BLA BLA BLA BLA BLA BLA BLA BLA BLA BLA BLA BLA BLA BLA BLA BLA BLA 
BLA BLA BLA BLA BLA BLA BLA BLA BLA BLA BLA BLA BLA BLA BLA BLA BLA BLA BLA BLA 
BLA BLA BLA BLA BLA BLA BLA BLA BLA BLA BLA BLA BLA BLA BLA BLA BLA BLA BLA BLA 
BLA BLA BLA BLA BLA BLA BLA BLA BLA BLA BLA BLA BLA BLA BLA BLA BLA BLA BLA BLA 
BLA BLA BLA BLA BLA BLA BLA BLA BLA BLA BLA BLA BLA BLA BLA BLA BLA BLA BLA BLA 
BLA BLA BLA BLA BLA BLA BLA BLA BLA BLA BLA BLA BLA BLA BLA BLA BLA BLA BLA BLA 
BLA BLA BLA BLA BLA BLA BLA BLA BLA BLA BLA BLA BLA BLA BLA BLA BLA BLA BLA BLA 
BLA BLA BLA BLA BLA BLA BLA BLA BLA BLA BLA BLA BLA BLA BLA BLA BLA BLA BLA BLA 
BLA BLA BLA BLA BLA BLA BLA BLA BLA BLA BLA BLA BLA BLA BLA BLA BLA BLA BLA BLA 
BLA BLA BLA BLA BLA BLA BLA BLA BLA BLA BLA BLA BLA BLA BLA BLA BLA BLA BLA BLA 
BLA BLA BLA BLA BLA BLA BLA BLA BLA BLA BLA BLA BLA BLA BLA BLA BLA BLA BLA BLA 
BLA BLA BLA BLA BLA BLA BLA BLA BLA BLA BLA BLA BLA BLA BLA BLA BLA BLA BLA BLA 
BLA BLA BLA BLA BLA BLA BLA BLA BLA BLA BLA BLA BLA BLA BLA BLA BLA BLA BLA BLA 
BLA BLA BLA BLA BLA BLA BLA BLA BLA BLA BLA BLA BLA BLA BLA BLA BLA BLA BLA BLA 
BLA BLA BLA BLA BLA BLA BLA BLA BLA BLA BLA BLA BLA BLA BLA BLA BLA BLA BLA BLA 
BLA BLA BLA BLA BLA BLA BLA BLA BLA BLA BLA BLA BLA BLA BLA BLA BLA BLA BLA BLA 
BLA BLA BLA BLA BLA BLA BLA BLA BLA BLA BLA BLA BLA BLA BLA BLA BLA BLA BLA BLA 
BLA BLA BLA BLA BLA BLA BLA BLA BLA BLA BLA BLA BLA BLA BLA BLA BLA BLA BLA BLA 
BLA BLA BLA BLA BLA BLA BLA BLA BLA BLA BLA BLA BLA BLA BLA BLA BLA BLA BLA BLA 
BLA BLA BLA BLA BLA BLA BLA BLA BLA BLA BLA BLA BLA BLA BLA BLA BLA BLA BLA BLA 
BLA BLA BLA BLA BLA BLA BLA BLA BLA BLA BLA BLA BLA BLA BLA BLA BLA BLA BLA BLA 
BLA BLA BLA BLA BLA BLA BLA BLA BLA BLA BLA BLA BLA BLA BLA BLA BLA BLA BLA BLA 
BLA BLA BLA BLA BLA BLA BLA BLA BLA BLA BLA BLA BLA BLA BLA BLA BLA BLA BLA BLA 
BLA BLA BLA BLA BLA BLA BLA BLA BLA BLA BLA BLA BLA BLA BLA BLA BLA BLA BLA BLA 
BLA BLA BLA BLA BLA BLA BLA BLA BLA BLA BLA BLA BLA BLA BLA BLA BLA BLA BLA BLA 
BLA BLA BLA BLA BLA BLA BLA BLA BLA BLA BLA BLA BLA BLA BLA BLA BLA BLA BLA BLA 
BLA BLA BLA BLA BLA BLA BLA BLA BLA BLA BLA BLA BLA BLA BLA BLA BLA BLA BLA BLA 
BLA BLA BLA BLA BLA BLA BLA BLA BLA BLA BLA BLA BLA BLA BLA BLA BLA BLA BLA BLA 
BLA BLA BLA BLA BLA BLA BLA BLA BLA BLA BLA BLA BLA BLA BLA BLA BLA BLA BLA BLA 
BLA BLA BLA BLA BLA BLA BLA BLA BLA BLA BLA BLA BLA BLA BLA BLA BLA BLA BLA BLA 
BLA BLA BLA BLA BLA BLA BLA BLA BLA BLA BLA BLA BLA BLA BLA BLA BLA BLA BLA BLA 
BLA BLA BLA BLA BLA BLA BLA BLA BLA BLA BLA BLA BLA BLA BLA BLA BLA BLA BLA BLA 
BLA BLA BLA BLA BLA BLA BLA BLA BLA BLA BLA BLA BLA BLA BLA BLA BLA BLA BLA BLA 
BLA BLA BLA BLA BLA BLA BLA BLA BLA BLA BLA BLA BLA BLA BLA BLA BLA BLA BLA BLA 
BLA BLA BLA BLA BLA BLA BLA BLA BLA BLA BLA BLA BLA BLA BLA BLA BLA BLA BLA BLA 
BLA BLA BLA BLA BLA BLA BLA BLA BLA BLA BLA BLA BLA BLA BLA BLA BLA BLA BLA BLA 
BLA BLA BLA BLA BLA BLA BLA BLA BLA BLA BLA BLA BLA BLA BLA BLA BLA BLA BLA BLA 
BLA BLA BLA BLA BLA BLA BLA BLA BLA BLA BLA BLA BLA BLA BLA BLA BLA BLA BLA BLA 
BLA BLA BLA BLA BLA BLA BLA BLA BLA BLA BLA BLA BLA BLA BLA BLA BLA BLA BLA BLA 
BLA BLA BLA BLA BLA BLA BLA BLA BLA BLA BLA BLA BLA BLA BLA BLA BLA BLA BLA BLA 
BLA BLA BLA BLA BLA BLA BLA BLA BLA BLA BLA BLA BLA BLA BLA BLA BLA BLA BLA BLA 
BLA BLA BLA BLA BLA BLA BLA BLA BLA BLA BLA BLA BLA BLA BLA BLA BLA BLA BLA BLA 
BLA BLA BLA BLA BLA BLA BLA BLA BLA BLA BLA BLA BLA BLA BLA BLA BLA BLA BLA BLA 
BLA BLA BLA BLA BLA BLA BLA BLA BLA BLA BLA BLA BLA BLA BLA BLA BLA BLA BLA BLA 
BLA BLA BLA BLA BLA BLA BLA BLA BLA BLA BLA BLA BLA BLA BLA BLA BLA BLA BLA BLA 
BLA BLA BLA BLA BLA BLA BLA BLA BLA BLA BLA BLA BLA BLA BLA BLA BLA BLA BLA BLA 
BLA BLA BLA BLA BLA BLA BLA BLA BLA BLA BLA BLA BLA BLA BLA BLA BLA BLA BLA BLA 
BLA BLA BLA BLA BLA BLA BLA BLA BLA BLA BLA BLA BLA BLA BLA BLA BLA BLA BLA BLA 
BLA BLA BLA BLA BLA BLA BLA BLA BLA BLA BLA BLA BLA BLA BLA BLA BLA BLA BLA BLA 
BLA BLA BLA BLA BLA BLA BLA BLA BLA BLA BLA BLA BLA BLA BLA BLA BLA BLA BLA BLA 
BLA BLA BLA BLA BLA BLA BLA BLA BLA BLA BLA BLA BLA BLA BLA BLA BLA BLA BLA BLA 
BLA BLA BLA BLA BLA BLA BLA BLA BLA BLA BLA BLA BLA BLA BLA BLA BLA BLA BLA BLA 
BLA BLA BLA BLA BLA BLA BLA BLA BLA BLA BLA BLA BLA BLA BLA BLA BLA BLA BLA BLA 
BLA BLA BLA BLA BLA BLA BLA BLA BLA BLA BLA BLA BLA BLA BLA BLA BLA BLA BLA BLA 
BLA BLA BLA BLA BLA BLA BLA BLA BLA BLA BLA BLA BLA BLA BLA BLA BLA BLA BLA BLA 
BLA BLA BLA BLA BLA BLA BLA BLA BLA BLA BLA BLA BLA BLA BLA BLA BLA BLA BLA BLA 
BLA BLA BLA BLA BLA BLA BLA BLA BLA BLA BLA BLA BLA BLA BLA BLA BLA BLA BLA BLA 
BLA BLA BLA BLA BLA BLA BLA BLA BLA BLA BLA BLA BLA BLA BLA BLA BLA BLA BLA BLA 
BLA BLA BLA BLA BLA BLA BLA BLA BLA BLA BLA BLA BLA BLA BLA BLA BLA BLA BLA BLA 
BLA BLA BLA BLA BLA BLA BLA BLA BLA BLA BLA BLA BLA BLA BLA BLA BLA BLA BLA BLA 
BLA BLA BLA BLA BLA BLA BLA BLA BLA BLA BLA BLA BLA BLA BLA BLA BLA BLA BLA BLA 
BLA BLA BLA BLA BLA BLA BLA BLA BLA BLA BLA BLA BLA BLA BLA BLA BLA BLA BLA BLA 
BLA BLA BLA BLA BLA BLA BLA BLA BLA BLA BLA BLA BLA BLA BLA BLA BLA BLA BLA BLA 
BLA BLA BLA BLA BLA BLA BLA BLA BLA BLA BLA BLA BLA BLA BLA BLA BLA BLA BLA BLA 
BLA BLA BLA BLA BLA BLA BLA BLA BLA BLA BLA BLA BLA BLA BLA BLA BLA BLA BLA BLA 
BLA BLA BLA BLA BLA BLA BLA BLA BLA BLA BLA BLA BLA BLA BLA BLA BLA BLA BLA BLA 
BLA BLA BLA BLA BLA BLA BLA BLA BLA BLA BLA BLA BLA BLA BLA BLA BLA BLA BLA BLA 
BLA BLA BLA BLA BLA BLA BLA BLA BLA BLA BLA BLA BLA BLA BLA BLA BLA BLA BLA BLA 
BLA BLA BLA BLA BLA BLA BLA BLA BLA BLA BLA BLA BLA BLA BLA BLA BLA BLA BLA BLA 
BLA BLA BLA BLA BLA BLA BLA BLA BLA BLA BLA BLA BLA BLA BLA BLA BLA BLA BLA BLA 
BLA BLA BLA BLA BLA BLA BLA BLA BLA BLA BLA BLA BLA BLA BLA BLA BLA BLA BLA BLA 
BLA BLA BLA BLA BLA BLA BLA BLA BLA BLA BLA BLA BLA BLA BLA BLA BLA BLA BLA BLA 
BLA BLA BLA BLA BLA BLA BLA BLA BLA BLA BLA BLA BLA BLA BLA BLA BLA BLA BLA BLA 
BLA BLA BLA BLA BLA BLA BLA BLA BLA BLA BLA BLA BLA BLA BLA BLA BLA BLA BLA BLA 
BLA BLA BLA BLA BLA BLA BLA BLA BLA BLA BLA BLA BLA BLA BLA BLA BLA BLA BLA BLA 
BLA BLA BLA BLA BLA BLA BLA BLA BLA BLA BLA BLA BLA BLA BLA BLA BLA BLA BLA BLA 
BLA BLA BLA BLA BLA BLA BLA BLA BLA BLA BLA BLA BLA BLA BLA BLA BLA BLA BLA BLA 
BLA BLA BLA BLA BLA BLA BLA BLA BLA BLA BLA BLA BLA BLA BLA BLA BLA BLA BLA BLA 
BLA BLA BLA BLA BLA BLA BLA BLA BLA BLA BLA BLA BLA BLA BLA BLA BLA BLA BLA BLA 
BLA BLA BLA BLA BLA BLA BLA BLA BLA BLA BLA BLA BLA BLA BLA BLA BLA BLA BLA BLA 
BLA BLA BLA BLA BLA BLA BLA BLA BLA BLA BLA BLA BLA BLA BLA BLA BLA BLA BLA BLA 
BLA BLA BLA BLA BLA BLA BLA BLA BLA BLA BLA BLA BLA BLA BLA BLA BLA BLA BLA BLA 
BLA BLA BLA BLA BLA BLA BLA BLA BLA BLA BLA BLA BLA BLA BLA BLA BLA BLA BLA BLA 
BLA BLA BLA BLA BLA BLA BLA BLA BLA BLA BLA BLA BLA BLA BLA BLA BLA BLA BLA BLA 
BLA BLA BLA BLA BLA BLA BLA BLA BLA BLA BLA BLA BLA BLA BLA BLA BLA BLA BLA BLA 
BLA BLA BLA BLA BLA BLA BLA BLA BLA BLA BLA BLA BLA BLA BLA BLA BLA BLA BLA BLA 
BLA BLA BLA BLA BLA BLA BLA BLA BLA BLA BLA BLA BLA BLA BLA BLA BLA BLA BLA BLA 
BLA BLA BLA BLA BLA BLA BLA BLA BLA BLA BLA BLA BLA BLA BLA BLA BLA BLA BLA BLA 
BLA BLA BLA BLA BLA BLA BLA BLA BLA BLA BLA BLA BLA BLA BLA BLA BLA BLA BLA BLA 
BLA BLA BLA BLA BLA BLA BLA BLA BLA BLA BLA BLA BLA BLA BLA BLA BLA BLA BLA BLA 
BLA BLA BLA BLA BLA BLA BLA BLA BLA BLA BLA BLA BLA BLA BLA BLA BLA BLA BLA BLA 
BLA BLA BLA BLA BLA BLA BLA BLA BLA BLA BLA BLA BLA BLA BLA BLA BLA BLA BLA BLA 
BLA BLA BLA BLA BLA BLA BLA BLA BLA BLA BLA BLA BLA BLA BLA BLA BLA BLA BLA BLA 
BLA BLA BLA BLA BLA BLA BLA BLA BLA BLA BLA BLA BLA BLA BLA BLA BLA BLA BLA BLA 
BLA BLA BLA BLA BLA BLA BLA BLA BLA BLA BLA BLA BLA BLA BLA BLA BLA BLA BLA BLA 
BLA BLA BLA BLA BLA BLA BLA BLA BLA BLA BLA BLA BLA BLA BLA BLA BLA BLA BLA BLA 
BLA BLA BLA BLA BLA BLA BLA BLA BLA BLA BLA BLA BLA BLA BLA BLA BLA BLA BLA BLA 
BLA BLA BLA BLA BLA BLA BLA BLA BLA BLA BLA BLA BLA BLA BLA BLA BLA BLA BLA BLA 
BLA BLA BLA BLA BLA BLA BLA BLA BLA BLA BLA BLA BLA BLA BLA BLA BLA BLA BLA BLA 
BLA BLA BLA BLA BLA BLA BLA BLA BLA BLA BLA BLA BLA BLA BLA BLA BLA BLA BLA BLA 
BLA BLA BLA BLA BLA BLA BLA BLA BLA BLA BLA BLA BLA BLA BLA BLA BLA BLA BLA BLA 
BLA BLA BLA BLA BLA BLA BLA BLA BLA BLA BLA BLA BLA BLA BLA BLA BLA BLA BLA BLA 
BLA BLA BLA BLA BLA BLA BLA BLA BLA BLA BLA BLA BLA BLA BLA BLA BLA BLA BLA BLA 
BLA BLA BLA BLA BLA BLA BLA BLA BLA BLA BLA BLA BLA BLA BLA BLA BLA BLA BLA BLA 
BLA BLA BLA BLA BLA BLA BLA BLA BLA BLA BLA BLA BLA BLA BLA BLA BLA BLA BLA BLA 
BLA BLA BLA BLA BLA BLA BLA BLA BLA BLA BLA BLA BLA BLA BLA BLA BLA BLA BLA BLA 
BLA BLA BLA BLA BLA BLA BLA BLA BLA BLA BLA BLA BLA BLA BLA BLA BLA BLA BLA BLA 
BLA BLA BLA BLA BLA BLA BLA BLA BLA BLA BLA BLA BLA BLA BLA BLA BLA BLA BLA BLA 
BLA BLA BLA BLA BLA BLA BLA BLA BLA BLA BLA BLA BLA BLA BLA BLA BLA BLA BLA BLA 
BLA BLA BLA BLA BLA BLA BLA BLA BLA BLA BLA BLA BLA BLA BLA BLA BLA BLA BLA BLA 
BLA BLA BLA BLA BLA BLA BLA BLA BLA BLA BLA BLA BLA BLA BLA BLA BLA BLA BLA BLA 
BLA BLA BLA BLA BLA BLA BLA BLA BLA BLA BLA BLA BLA BLA BLA BLA BLA BLA BLA BLA 
BLA BLA BLA BLA BLA BLA BLA BLA BLA BLA BLA BLA BLA BLA BLA BLA BLA BLA BLA BLA 
BLA BLA BLA BLA BLA BLA BLA BLA BLA BLA BLA BLA BLA BLA BLA BLA BLA BLA BLA BLA 
BLA BLA BLA BLA BLA BLA BLA BLA BLA BLA BLA BLA BLA BLA BLA BLA BLA BLA BLA BLA 
BLA BLA BLA BLA BLA BLA BLA BLA BLA BLA BLA BLA BLA BLA BLA BLA BLA BLA BLA BLA 
BLA BLA BLA BLA BLA BLA BLA BLA BLA BLA BLA BLA BLA BLA BLA BLA BLA BLA BLA BLA 
BLA BLA BLA BLA BLA BLA BLA BLA BLA BLA BLA BLA BLA BLA BLA BLA BLA BLA BLA BLA 
BLA BLA BLA BLA BLA BLA BLA BLA BLA BLA BLA BLA BLA BLA BLA BLA BLA BLA BLA BLA 
BLA BLA BLA BLA BLA BLA BLA BLA BLA BLA BLA BLA BLA BLA BLA BLA BLA BLA BLA BLA 
BLA BLA BLA BLA BLA BLA BLA BLA BLA BLA BLA BLA BLA BLA BLA BLA BLA BLA BLA BLA 
BLA BLA BLA BLA BLA BLA BLA BLA BLA BLA BLA BLA BLA BLA BLA BLA BLA BLA BLA BLA 
BLA BLA BLA BLA BLA BLA BLA BLA BLA BLA BLA BLA BLA BLA BLA BLA BLA BLA BLA BLA 
BLA BLA BLA BLA BLA BLA BLA BLA BLA BLA BLA BLA BLA BLA BLA BLA BLA BLA BLA BLA 
BLA BLA BLA BLA BLA BLA BLA BLA BLA BLA BLA BLA BLA BLA BLA BLA BLA BLA BLA BLA 
BLA BLA BLA BLA BLA BLA BLA BLA BLA BLA BLA BLA BLA BLA BLA BLA BLA BLA BLA BLA 
BLA BLA BLA BLA BLA BLA BLA BLA BLA BLA BLA BLA BLA BLA BLA BLA BLA BLA BLA BLA 
BLA BLA BLA BLA BLA BLA BLA BLA BLA BLA BLA BLA BLA BLA BLA BLA BLA BLA BLA BLA 
BLA BLA BLA BLA BLA BLA BLA BLA BLA BLA BLA BLA BLA BLA BLA BLA BLA BLA BLA BLA 
BLA BLA BLA BLA BLA BLA BLA BLA BLA BLA BLA BLA BLA BLA BLA BLA BLA BLA BLA BLA 
BLA BLA BLA BLA BLA BLA BLA BLA BLA BLA BLA BLA BLA BLA BLA BLA BLA BLA BLA BLA 
BLA BLA BLA BLA BLA BLA BLA BLA BLA BLA BLA BLA BLA BLA BLA BLA BLA BLA BLA BLA 
BLA BLA BLA BLA BLA BLA BLA BLA BLA BLA BLA BLA BLA BLA BLA BLA BLA BLA BLA BLA 
BLA BLA BLA BLA BLA BLA BLA BLA BLA BLA BLA BLA BLA BLA BLA BLA BLA BLA BLA BLA 
BLA BLA BLA BLA BLA BLA BLA BLA BLA BLA BLA BLA BLA BLA BLA BLA BLA BLA BLA BLA 
BLA BLA BLA BLA BLA BLA BLA BLA BLA BLA BLA BLA BLA BLA BLA BLA BLA BLA BLA BLA 
BLA BLA BLA BLA BLA BLA BLA BLA BLA BLA BLA BLA BLA BLA BLA BLA BLA BLA BLA BLA 
BLA BLA BLA BLA BLA BLA BLA BLA BLA BLA BLA BLA BLA BLA BLA BLA BLA BLA BLA BLA 
BLA BLA BLA BLA BLA BLA BLA BLA BLA BLA BLA BLA BLA BLA BLA BLA BLA BLA BLA BLA 
BLA BLA BLA BLA BLA BLA BLA BLA BLA BLA BLA BLA BLA BLA BLA BLA BLA BLA BLA BLA 
BLA BLA BLA BLA BLA BLA BLA BLA BLA BLA BLA BLA BLA BLA BLA BLA BLA BLA BLA BLA 
BLA BLA BLA BLA BLA BLA BLA BLA BLA BLA BLA BLA BLA BLA BLA BLA BLA BLA BLA BLA 
BLA BLA BLA BLA BLA BLA BLA BLA BLA BLA BLA BLA BLA BLA BLA BLA BLA BLA BLA BLA 
BLA BLA BLA BLA BLA BLA BLA BLA BLA BLA BLA BLA BLA BLA BLA BLA BLA BLA BLA BLA 
BLA BLA BLA BLA BLA BLA BLA BLA BLA BLA BLA BLA BLA BLA BLA BLA BLA BLA BLA BLA 
BLA BLA BLA BLA BLA BLA BLA BLA BLA BLA BLA BLA BLA BLA BLA BLA BLA BLA BLA BLA 
BLA BLA BLA BLA BLA BLA BLA BLA BLA BLA BLA BLA BLA BLA BLA BLA BLA BLA BLA BLA 
BLA BLA BLA BLA BLA BLA BLA BLA BLA BLA BLA BLA BLA BLA BLA BLA BLA BLA BLA BLA 
BLA BLA BLA BLA BLA BLA BLA BLA BLA BLA BLA BLA BLA BLA BLA BLA BLA BLA BLA BLA 
BLA BLA BLA BLA BLA BLA BLA BLA BLA BLA BLA BLA BLA BLA BLA BLA BLA BLA BLA BLA 
BLA BLA BLA BLA BLA BLA BLA BLA BLA BLA BLA BLA BLA BLA BLA BLA BLA BLA BLA BLA 
BLA BLA BLA BLA BLA BLA BLA BLA BLA BLA BLA BLA BLA BLA BLA BLA BLA BLA BLA BLA 
BLA BLA BLA BLA BLA BLA BLA BLA BLA BLA BLA BLA BLA BLA BLA BLA BLA BLA BLA BLA 
BLA BLA BLA BLA BLA BLA BLA BLA BLA BLA BLA BLA BLA BLA BLA BLA BLA BLA BLA BLA 
BLA BLA BLA BLA BLA BLA BLA BLA BLA BLA BLA BLA BLA BLA BLA BLA BLA BLA BLA BLA 
BLA BLA BLA BLA BLA BLA BLA BLA BLA BLA BLA BLA BLA BLA BLA BLA BLA BLA BLA BLA 
BLA BLA BLA BLA BLA BLA BLA BLA BLA BLA BLA BLA BLA BLA BLA BLA BLA BLA BLA BLA 
BLA BLA BLA BLA BLA BLA BLA BLA BLA BLA BLA BLA BLA BLA BLA BLA BLA BLA BLA BLA 
BLA BLA BLA BLA BLA BLA BLA BLA BLA BLA BLA BLA BLA BLA BLA BLA BLA BLA BLA BLA 
BLA BLA BLA BLA BLA BLA BLA BLA BLA BLA BLA BLA BLA BLA BLA BLA BLA BLA BLA BLA 
BLA BLA BLA BLA BLA BLA BLA BLA BLA BLA BLA BLA BLA BLA BLA BLA BLA BLA BLA BLA 
BLA BLA BLA BLA BLA BLA BLA BLA BLA BLA BLA BLA BLA BLA BLA BLA BLA BLA BLA BLA 
BLA BLA BLA BLA BLA BLA BLA BLA BLA BLA BLA BLA BLA BLA BLA BLA BLA BLA BLA BLA 
BLA BLA BLA BLA BLA BLA BLA BLA BLA BLA BLA BLA BLA BLA BLA BLA BLA BLA BLA BLA 
BLA BLA BLA BLA BLA BLA BLA BLA BLA BLA BLA BLA BLA BLA BLA BLA BLA BLA BLA BLA 
BLA BLA BLA BLA BLA BLA BLA BLA BLA BLA BLA BLA BLA BLA BLA BLA BLA BLA BLA BLA 
BLA BLA BLA BLA BLA BLA BLA BLA BLA BLA BLA BLA BLA BLA BLA BLA BLA BLA BLA BLA 
BLA BLA BLA BLA BLA BLA BLA BLA BLA BLA BLA BLA BLA BLA BLA BLA BLA BLA BLA BLA 
BLA BLA BLA BLA BLA BLA BLA BLA BLA BLA BLA BLA BLA BLA BLA BLA BLA BLA BLA BLA 
BLA BLA BLA BLA BLA BLA BLA BLA BLA BLA BLA BLA BLA BLA BLA BLA BLA BLA BLA BLA 
BLA BLA BLA BLA BLA BLA BLA BLA BLA BLA BLA BLA BLA BLA BLA BLA BLA BLA BLA BLA 
BLA BLA BLA BLA BLA BLA BLA BLA BLA BLA BLA BLA BLA BLA BLA BLA BLA BLA BLA BLA 
BLA BLA BLA BLA BLA BLA BLA BLA BLA BLA BLA BLA BLA BLA BLA BLA BLA BLA BLA BLA 
BLA BLA BLA BLA BLA BLA BLA BLA BLA BLA BLA BLA BLA BLA BLA BLA BLA BLA BLA BLA 
BLA BLA BLA BLA BLA BLA BLA BLA BLA BLA BLA BLA BLA BLA BLA BLA BLA BLA BLA BLA 
BLA BLA BLA BLA BLA BLA BLA BLA BLA BLA BLA BLA BLA BLA BLA BLA BLA BLA BLA BLA 
BLA BLA BLA BLA BLA BLA BLA BLA BLA BLA BLA BLA BLA BLA BLA BLA BLA BLA BLA BLA 
BLA BLA BLA BLA BLA BLA BLA BLA BLA BLA BLA BLA BLA BLA BLA BLA BLA BLA BLA BLA 
BLA BLA BLA BLA BLA BLA BLA BLA BLA BLA BLA BLA BLA BLA BLA BLA BLA BLA BLA BLA 
BLA BLA BLA BLA BLA BLA BLA BLA BLA BLA BLA BLA BLA BLA BLA BLA BLA BLA BLA BLA 
BLA BLA BLA BLA BLA BLA BLA BLA BLA BLA BLA BLA BLA BLA BLA BLA BLA BLA BLA BLA 
BLA BLA BLA BLA BLA BLA BLA BLA BLA BLA BLA BLA BLA BLA BLA BLA BLA BLA BLA BLA 
BLA BLA BLA BLA BLA BLA BLA BLA BLA BLA BLA BLA BLA BLA BLA BLA BLA BLA BLA BLA 
BLA BLA BLA BLA BLA BLA BLA BLA BLA BLA BLA BLA BLA BLA BLA BLA BLA BLA BLA BLA 
BLA BLA BLA BLA BLA BLA BLA BLA BLA BLA BLA BLA BLA BLA BLA BLA BLA BLA BLA BLA 
BLA BLA BLA BLA BLA BLA BLA BLA BLA BLA BLA BLA BLA BLA BLA BLA BLA BLA BLA BLA 
BLA BLA BLA BLA BLA BLA BLA BLA BLA BLA BLA BLA BLA BLA BLA BLA BLA BLA BLA BLA 
BLA BLA BLA BLA BLA BLA BLA BLA BLA BLA BLA BLA BLA BLA BLA BLA BLA BLA BLA BLA 
BLA BLA BLA BLA BLA BLA BLA BLA BLA BLA BLA BLA BLA BLA BLA BLA BLA BLA BLA BLA 
BLA BLA BLA BLA BLA BLA BLA BLA BLA BLA BLA BLA BLA BLA BLA BLA BLA BLA BLA BLA 
BLA BLA BLA BLA BLA BLA BLA BLA BLA BLA BLA BLA BLA BLA BLA BLA BLA BLA BLA BLA 
BLA BLA BLA BLA BLA BLA BLA BLA BLA BLA BLA BLA BLA BLA BLA BLA BLA BLA BLA BLA 
BLA BLA BLA BLA BLA BLA BLA BLA BLA BLA BLA BLA BLA BLA BLA BLA BLA BLA BLA BLA 
BLA BLA BLA BLA BLA BLA BLA BLA BLA BLA BLA BLA BLA BLA BLA BLA BLA BLA BLA BLA 
BLA BLA BLA BLA BLA BLA BLA BLA BLA BLA BLA BLA BLA BLA BLA BLA BLA BLA BLA BLA 
BLA BLA BLA BLA BLA BLA BLA BLA BLA BLA BLA BLA BLA BLA BLA BLA BLA BLA BLA BLA 
BLA BLA BLA BLA BLA BLA BLA BLA BLA BLA BLA BLA BLA BLA BLA BLA BLA BLA BLA BLA 
BLA BLA BLA BLA BLA BLA BLA BLA BLA BLA BLA BLA BLA BLA BLA BLA BLA BLA BLA BLA 
BLA BLA BLA BLA BLA BLA BLA BLA BLA BLA BLA BLA BLA BLA BLA BLA BLA BLA BLA BLA 
BLA BLA BLA BLA BLA BLA BLA BLA BLA BLA BLA BLA BLA BLA BLA BLA BLA BLA BLA BLA 
BLA BLA BLA BLA BLA BLA BLA BLA BLA BLA BLA BLA BLA BLA BLA BLA BLA BLA BLA BLA 
BLA BLA BLA BLA BLA BLA BLA BLA BLA BLA BLA BLA BLA BLA BLA BLA BLA BLA BLA BLA 
BLA BLA BLA BLA BLA BLA BLA BLA BLA BLA BLA BLA BLA BLA BLA BLA BLA BLA BLA BLA 
BLA BLA BLA BLA BLA BLA BLA BLA BLA BLA BLA BLA BLA BLA BLA BLA BLA BLA BLA BLA 
BLA BLA BLA BLA BLA BLA BLA BLA BLA BLA BLA BLA BLA BLA BLA BLA BLA BLA BLA BLA 
BLA BLA BLA BLA BLA BLA BLA BLA BLA BLA BLA BLA BLA BLA BLA BLA BLA BLA BLA BLA 
BLA BLA BLA BLA BLA BLA BLA BLA BLA BLA BLA BLA BLA BLA BLA BLA BLA BLA BLA BLA 
BLA BLA BLA BLA BLA BLA BLA BLA BLA BLA BLA BLA BLA BLA BLA BLA BLA BLA BLA BLA 
BLA BLA BLA BLA BLA BLA BLA BLA BLA BLA BLA BLA BLA BLA BLA BLA BLA BLA BLA BLA 
BLA BLA BLA BLA BLA BLA BLA BLA BLA BLA BLA BLA BLA BLA BLA BLA BLA BLA BLA BLA 
BLA BLA BLA BLA BLA BLA BLA BLA BLA BLA BLA BLA BLA BLA BLA BLA BLA BLA BLA BLA 
BLA BLA BLA BLA BLA BLA BLA BLA BLA BLA BLA BLA BLA BLA BLA BLA BLA BLA BLA BLA 
BLA BLA BLA BLA BLA BLA BLA BLA BLA BLA BLA BLA BLA BLA BLA BLA BLA BLA BLA BLA 
BLA BLA BLA BLA BLA BLA BLA BLA BLA BLA BLA BLA BLA BLA BLA BLA BLA BLA BLA BLA 
BLA BLA BLA BLA BLA BLA BLA BLA BLA BLA BLA BLA BLA BLA BLA BLA BLA BLA BLA BLA 
BLA BLA BLA BLA BLA BLA BLA BLA BLA BLA BLA BLA BLA BLA BLA BLA BLA BLA BLA BLA 
BLA BLA BLA BLA BLA BLA BLA BLA BLA BLA BLA BLA BLA BLA BLA BLA BLA BLA BLA BLA 
BLA BLA BLA BLA BLA BLA BLA BLA BLA BLA BLA BLA BLA BLA BLA BLA BLA BLA BLA BLA 
BLA BLA BLA BLA BLA BLA BLA BLA BLA BLA BLA BLA BLA BLA BLA BLA BLA BLA BLA BLA 
BLA BLA BLA BLA BLA BLA BLA BLA BLA BLA BLA BLA BLA BLA BLA BLA BLA BLA BLA BLA 
BLA BLA BLA BLA BLA BLA BLA BLA BLA BLA BLA BLA BLA BLA BLA BLA BLA BLA BLA BLA 
BLA BLA BLA BLA BLA BLA BLA BLA BLA BLA BLA BLA BLA BLA BLA BLA BLA BLA BLA BLA 
BLA BLA BLA BLA BLA BLA BLA BLA BLA BLA BLA BLA BLA BLA BLA BLA BLA BLA BLA BLA 
BLA BLA BLA BLA BLA BLA BLA BLA BLA BLA BLA BLA BLA BLA BLA BLA BLA BLA BLA BLA 
BLA BLA BLA BLA BLA BLA BLA BLA BLA BLA BLA BLA BLA BLA BLA BLA BLA BLA BLA BLA 
BLA BLA BLA BLA BLA BLA BLA BLA BLA BLA BLA BLA BLA BLA BLA BLA BLA BLA BLA BLA 
BLA BLA BLA BLA BLA BLA BLA BLA BLA BLA BLA BLA BLA BLA BLA BLA BLA BLA BLA BLA 
BLA BLA BLA BLA BLA BLA BLA BLA BLA BLA BLA BLA BLA BLA BLA BLA BLA BLA BLA BLA 
BLA BLA BLA BLA BLA BLA BLA BLA BLA BLA BLA BLA BLA BLA BLA BLA BLA BLA BLA BLA 
BLA BLA BLA BLA BLA BLA BLA BLA BLA BLA BLA BLA BLA BLA BLA BLA BLA BLA BLA BLA 
BLA BLA BLA BLA BLA BLA BLA BLA BLA BLA BLA BLA BLA BLA BLA BLA BLA BLA BLA BLA 
BLA BLA BLA BLA BLA BLA BLA BLA BLA BLA BLA BLA BLA BLA BLA BLA BLA BLA BLA BLA 
BLA BLA BLA BLA BLA BLA BLA BLA BLA BLA BLA BLA BLA BLA BLA BLA BLA BLA BLA BLA 
BLA BLA BLA BLA BLA BLA BLA BLA BLA BLA BLA BLA BLA BLA BLA BLA BLA BLA BLA BLA 
BLA BLA BLA BLA BLA BLA BLA BLA BLA BLA BLA BLA BLA BLA BLA BLA BLA BLA BLA BLA 
BLA BLA BLA BLA BLA BLA BLA BLA BLA BLA BLA BLA BLA BLA BLA BLA BLA BLA BLA BLA 
BLA BLA BLA BLA BLA BLA BLA BLA BLA BLA BLA BLA BLA BLA BLA BLA BLA BLA BLA BLA 
BLA BLA BLA BLA BLA BLA BLA BLA BLA BLA BLA BLA BLA BLA BLA BLA BLA BLA BLA BLA 
BLA BLA BLA BLA BLA BLA BLA BLA BLA BLA BLA BLA BLA BLA BLA BLA BLA BLA BLA BLA 
BLA BLA BLA BLA BLA BLA BLA BLA BLA BLA BLA BLA BLA BLA BLA BLA BLA BLA BLA BLA 
BLA BLA BLA BLA BLA BLA BLA BLA BLA BLA BLA BLA BLA BLA BLA BLA BLA BLA BLA BLA 
BLA BLA BLA BLA BLA BLA BLA BLA BLA BLA BLA BLA BLA BLA BLA BLA BLA BLA BLA BLA 
BLA BLA BLA BLA BLA BLA BLA BLA BLA BLA BLA BLA BLA BLA BLA BLA BLA BLA BLA BLA 
BLA BLA BLA BLA BLA BLA BLA BLA BLA BLA BLA BLA BLA BLA BLA BLA BLA BLA BLA BLA 
BLA BLA BLA BLA BLA BLA BLA BLA BLA BLA BLA BLA BLA BLA BLA BLA BLA BLA BLA BLA 
BLA BLA BLA BLA BLA BLA BLA BLA BLA BLA BLA BLA BLA BLA BLA BLA BLA BLA BLA BLA 
BLA BLA BLA BLA BLA BLA BLA BLA BLA BLA BLA BLA BLA BLA BLA BLA BLA BLA BLA BLA 
BLA BLA BLA BLA BLA BLA BLA BLA BLA BLA BLA BLA BLA BLA BLA BLA BLA BLA BLA BLA 
BLA BLA BLA BLA BLA BLA BLA BLA BLA BLA BLA BLA BLA BLA BLA BLA BLA BLA BLA BLA 
BLA BLA BLA BLA BLA BLA BLA BLA BLA BLA BLA BLA BLA BLA BLA BLA BLA BLA BLA BLA 
BLA BLA BLA BLA BLA BLA BLA BLA BLA BLA BLA BLA BLA BLA BLA BLA BLA BLA BLA BLA 
BLA BLA BLA BLA BLA BLA BLA BLA BLA BLA BLA BLA BLA BLA BLA BLA BLA BLA BLA BLA 
BLA BLA BLA BLA BLA BLA BLA BLA BLA BLA BLA BLA BLA BLA BLA BLA BLA BLA BLA BLA 
BLA BLA BLA BLA BLA BLA BLA BLA BLA BLA BLA BLA BLA BLA BLA BLA BLA BLA BLA BLA 
BLA BLA BLA BLA BLA BLA BLA BLA BLA BLA BLA BLA BLA BLA BLA BLA BLA BLA BLA BLA 
BLA BLA BLA BLA BLA BLA BLA BLA BLA BLA BLA BLA BLA BLA BLA BLA BLA BLA BLA BLA 
BLA BLA BLA BLA BLA BLA BLA BLA BLA BLA BLA BLA BLA BLA BLA BLA BLA BLA BLA BLA 
BLA BLA BLA BLA BLA BLA BLA BLA BLA BLA BLA BLA BLA BLA BLA BLA BLA BLA BLA BLA 
BLA BLA BLA BLA BLA BLA BLA BLA BLA BLA BLA BLA BLA BLA BLA BLA BLA BLA BLA BLA 
BLA BLA BLA BLA BLA BLA BLA BLA BLA BLA BLA BLA BLA BLA BLA BLA BLA BLA BLA BLA 
BLA BLA BLA BLA BLA BLA BLA BLA BLA BLA BLA BLA BLA BLA BLA BLA BLA BLA BLA BLA 
BLA BLA BLA BLA BLA BLA BLA BLA BLA BLA BLA BLA BLA BLA BLA BLA BLA BLA BLA BLA 
BLA BLA BLA BLA BLA BLA BLA BLA BLA BLA BLA BLA BLA BLA BLA BLA BLA BLA BLA BLA 
BLA BLA BLA BLA BLA BLA BLA BLA BLA BLA BLA BLA BLA BLA BLA BLA BLA BLA BLA BLA 
BLA BLA BLA BLA BLA BLA BLA BLA BLA BLA BLA BLA BLA BLA BLA BLA BLA BLA BLA BLA 
BLA BLA BLA BLA BLA BLA BLA BLA BLA BLA BLA BLA BLA BLA BLA BLA BLA BLA BLA BLA 
BLA BLA BLA BLA BLA BLA BLA BLA BLA BLA BLA BLA BLA BLA BLA BLA BLA BLA BLA BLA 
BLA BLA BLA BLA BLA BLA BLA BLA BLA BLA BLA BLA BLA BLA BLA BLA BLA BLA BLA BLA 
BLA BLA BLA BLA BLA BLA BLA BLA 
%FLAG JOIN_ARRAY                                                                
%FORMAT(10I8)                                                                   
       0       0       0       0       0       0       0       0       0       0
       0       0       0       0       0       0       0       0       0       0
       0       0       0       0       0       0       0       0       0       0
       0       0       0       0       0       0       0       0       0       0
       0       0       0       0       0       0       0       0       0       0
       0       0       0       0       0       0       0       0       0       0
       0       0       0       0       0       0       0       0       0       0
       0       0       0       0       0       0       0       0       0       0
       0       0       0       0       0       0       0       0       0       0
       0       0       0       0       0       0       0       0       0       0
       0       0       0       0       0       0       0       0       0       0
       0       0       0       0       0       0       0       0       0       0
       0       0       0       0       0       0       0       0       0       0
       0       0       0       0       0       0       0       0       0       0
       0       0       0       0       0       0       0       0       0       0
       0       0       0       0       0       0       0       0       0       0
       0       0       0       0       0       0       0       0       0       0
       0       0       0       0       0       0       0       0       0       0
       0       0       0       0       0       0       0       0       0       0
       0       0       0       0       0       0       0       0       0       0
       0       0       0       0       0       0       0       0       0       0
       0       0       0       0       0       0       0       0       0       0
       0       0       0       0       0       0       0       0       0       0
       0       0       0       0       0       0       0       0       0       0
       0       0       0       0       0       0       0       0       0       0
       0       0       0       0       0       0       0       0       0       0
       0       0       0       0       0       0       0       0       0       0
       0       0       0       0       0       0       0       0       0       0
       0       0       0       0       0       0       0       0       0       0
       0       0       0       0       0       0       0       0       0       0
       0       0       0       0       0       0       0       0       0       0
       0       0       0       0       0       0       0       0       0       0
       0       0       0       0       0       0       0       0       0       0
       0       0       0       0       0       0       0       0       0       0
       0       0       0       0       0       0       0       0       0       0
       0       0       0       0       0       0       0       0       0       0
       0       0       0       0       0       0       0       0       0       0
       0       0       0       0       0       0       0       0       0       0
       0       0       0       0       0       0       0       0       0       0
       0       0       0       0       0       0       0       0       0       0
       0       0       0       0       0       0       0       0       0       0
       0       0       0       0       0       0       0       0       0       0
       0       0       0       0       0       0       0       0       0       0
       0       0       0       0       0       0       0       0       0       0
       0       0       0       0       0       0       0       0       0       0
       0       0       0       0       0       0       0       0       0       0
       0       0       0       0       0       0       0       0       0       0
       0       0       0       0       0       0       0       0       0       0
       0       0       0       0       0       0       0       0       0       0
       0       0       0       0       0       0       0       0       0       0
       0       0       0       0       0       0       0       0       0       0
       0       0       0       0       0       0       0       0       0       0
       0       0       0       0       0       0       0       0       0       0
       0       0       0       0       0       0       0       0       0       0
       0       0       0       0       0       0       0       0       0       0
       0       0       0       0       0       0       0       0       0       0
       0       0       0       0       0       0       0       0       0       0
       0       0       0       0       0       0       0       0       0       0
       0       0       0       0       0       0       0       0       0       0
       0       0       0       0       0       0       0       0       0       0
       0       0       0       0       0       0       0       0       0       0
       0       0       0       0       0       0       0       0       0       0
       0       0       0       0       0       0       0       0       0       0
       0       0       0       0       0       0       0       0       0       0
       0       0       0       0       0       0       0       0       0       0
       0       0       0       0       0       0       0       0       0       0
       0       0       0       0       0       0       0       0       0       0
       0       0       0       0       0       0       0       0       0       0
       0       0       0       0       0       0       0       0       0       0
       0       0       0       0       0       0       0       0       0       0
       0       0       0       0       0       0       0       0       0       0
       0       0       0       0       0       0       0       0       0       0
       0       0       0       0       0       0       0       0       0       0
       0       0       0       0       0       0       0       0       0       0
       0       0       0       0       0       0       0       0       0       0
       0       0       0       0       0       0       0       0       0       0
       0       0       0       0       0       0       0       0       0       0
       0       0       0       0       0       0       0       0       0       0
       0       0       0       0       0       0       0       0       0       0
       0       0       0       0       0       0       0       0       0       0
       0       0       0       0       0       0       0       0       0       0
       0       0       0       0       0       0       0       0       0       0
       0       0       0       0       0       0       0       0       0       0
       0       0       0       0       0       0       0       0       0       0
       0       0       0       0       0       0       0       0       0       0
       0       0       0       0       0       0       0       0       0       0
       0       0       0       0       0       0       0       0       0       0
       0       0       0       0       0       0       0       0       0       0
       0       0       0       0       0       0       0       0       0       0
       0       0       0       0       0       0       0       0       0       0
       0       0       0       0       0       0       0       0       0       0
       0       0       0       0       0       0       0       0       0       0
       0       0       0       0       0       0       0       0       0       0
       0       0       0       0       0       0       0       0       0       0
       0       0       0       0       0       0       0       0       0       0
       0       0       0       0       0       0       0       0       0       0
       0       0       0       0       0       0       0       0       0       0
       0       0       0       0       0       0       0       0       0       0
       0       0       0       0       0       0       0       0       0       0
       0       0       0       0       0       0       0       0       0       0
       0       0       0       0       0       0       0       0       0       0
       0       0       0       0       0       0       0       0       0       0
       0       0       0       0       0       0       0       0       0       0
       0       0       0       0       0       0       0       0       0       0
       0       0       0       0       0       0       0       0       0       0
       0       0       0       0       0       0       0       0       0       0
       0       0       0       0       0       0       0       0       0       0
       0       0       0       0       0       0       0       0       0       0
       0       0       0       0       0       0       0       0       0       0
       0       0       0       0       0       0       0       0       0       0
       0       0       0       0       0       0       0       0       0       0
       0       0       0       0       0       0       0       0       0       0
       0       0       0       0       0       0       0       0       0       0
       0       0       0       0       0       0       0       0       0       0
       0       0       0       0       0       0       0       0       0       0
       0       0       0       0       0       0       0       0       0       0
       0       0       0       0       0       0       0       0       0       0
       0       0       0       0       0       0       0       0       0       0
       0       0       0       0       0       0       0       0       0       0
       0       0       0       0       0       0       0       0       0       0
       0       0       0       0       0       0       0       0       0       0
       0       0       0       0       0       0       0       0       0       0
       0       0       0       0       0       0       0       0       0       0
       0       0       0       0       0       0       0       0       0       0
       0       0       0       0       0       0       0       0       0       0
       0       0       0       0       0       0       0       0       0       0
       0       0       0       0       0       0       0       0       0       0
       0       0       0       0       0       0       0       0       0       0
       0       0       0       0       0       0       0       0       0       0
       0       0       0       0       0       0       0       0       0       0
       0       0       0       0       0       0       0       0       0       0
       0       0       0       0       0       0       0       0       0       0
       0       0       0       0       0       0       0       0       0       0
       0       0       0       0       0       0       0       0       0       0
       0       0       0       0       0       0       0       0       0       0
       0       0       0       0       0       0       0       0       0       0
       0       0       0       0       0       0       0       0       0       0
       0       0       0       0       0       0       0       0       0       0
       0       0       0       0       0       0       0       0       0       0
       0       0       0       0       0       0       0       0       0       0
       0       0       0       0       0       0       0       0       0       0
       0       0       0       0       0       0       0       0       0       0
       0       0       0       0       0       0       0       0       0       0
       0       0       0       0       0       0       0       0       0       0
       0       0       0       0       0       0       0       0       0       0
       0       0       0       0       0       0       0       0       0       0
       0       0       0       0       0       0       0       0       0       0
       0       0       0       0       0       0       0       0       0       0
       0       0       0       0       0       0       0       0       0       0
       0       0       0       0       0       0       0       0       0       0
       0       0       0       0       0       0       0       0       0       0
       0       0       0       0       0       0       0       0       0       0
       0       0       0       0       0       0       0       0       0       0
       0       0       0       0       0       0       0       0       0       0
       0       0       0       0       0       0       0       0       0       0
       0       0       0       0       0       0       0       0       0       0
       0       0       0       0       0       0       0       0       0       0
       0       0       0       0       0       0       0       0       0       0
       0       0       0       0       0       0       0       0       0       0
       0       0       0       0       0       0       0       0       0       0
       0       0       0       0       0       0       0       0       0       0
       0       0       0       0       0       0       0       0       0       0
       0       0       0       0       0       0       0       0       0       0
       0       0       0       0       0       0       0       0       0       0
       0       0       0       0       0       0       0       0       0       0
       0       0       0       0       0       0       0       0       0       0
       0       0       0       0       0       0       0       0       0       0
       0       0       0       0       0       0       0       0       0       0
       0       0       0       0       0       0       0       0       0       0
       0       0       0       0       0       0       0       0       0       0
       0       0       0       0       0       0       0       0       0       0
       0       0       0       0       0       0       0       0       0       0
       0       0       0       0       0       0       0       0       0       0
       0       0       0       0       0       0       0       0       0       0
       0       0       0       0       0       0       0       0       0       0
       0       0       0       0       0       0       0       0       0       0
       0       0       0       0       0       0       0       0       0       0
       0       0       0       0       0       0       0       0       0       0
       0       0       0       0       0       0       0       0       0       0
       0       0       0       0       0       0       0       0       0       0
       0       0       0       0       0       0       0       0       0       0
       0       0       0       0       0       0       0       0       0       0
       0       0       0       0       0       0       0       0       0       0
       0       0       0       0       0       0       0       0       0       0
       0       0       0       0       0       0       0       0       0       0
       0       0       0       0       0       0       0       0       0       0
       0       0       0       0       0       0       0       0       0       0
       0       0       0       0       0       0       0       0       0       0
       0       0       0       0       0       0       0       0       0       0
       0       0       0       0       0       0       0       0       0       0
       0       0       0       0       0       0       0       0       0       0
       0       0       0       0       0       0       0       0       0       0
       0       0       0       0       0       0       0       0       0       0
       0       0       0       0       0       0       0       0       0       0
       0       0       0       0       0       0       0       0       0       0
       0       0       0       0       0       0       0       0       0       0
       0       0       0       0       0       0       0       0       0       0
       0       0       0       0       0       0       0       0       0       0
       0       0       0       0       0       0       0       0       0       0
       0       0       0       0       0       0       0       0       0       0
       0       0       0       0       0       0       0       0       0       0
       0       0       0       0       0       0       0       0       0       0
       0       0       0       0       0       0       0       0       0       0
       0       0       0       0       0       0       0       0       0       0
       0       0       0       0       0       0       0       0       0       0
       0       0       0       0       0       0       0       0       0       0
       0       0       0       0       0       0       0       0       0       0
       0       0       0       0       0       0       0       0       0       0
       0       0       0       0       0       0       0       0       0       0
       0       0       0       0       0       0       0       0       0       0
       0       0       0       0       0       0       0       0       0       0
       0       0       0       0       0       0       0       0       0       0
       0       0       0       0       0       0       0       0       0       0
       0       0       0       0       0       0       0       0       0       0
       0       0       0       0       0       0       0       0       0       0
       0       0       0       0       0       0       0       0       0       0
       0       0       0       0       0       0       0       0       0       0
       0       0       0       0       0       0       0       0       0       0
       0       0       0       0       0       0       0       0       0       0
       0       0       0       0       0       0       0       0       0       0
       0       0       0       0       0       0       0       0       0       0
       0       0       0       0       0       0       0       0       0       0
       0       0       0       0       0       0       0       0       0       0
       0       0       0       0       0       0       0       0       0       0
       0       0       0       0       0       0       0       0       0       0
       0       0       0       0       0       0       0       0       0       0
       0       0       0       0       0       0       0       0       0       0
       0       0       0       0       0       0       0       0       0       0
       0       0       0       0       0       0       0       0       0       0
       0       0       0       0       0       0       0       0       0       0
       0       0       0       0       0       0       0       0       0       0
       0       0       0       0       0       0       0       0       0       0
       0       0       0       0       0       0       0       0       0       0
       0       0       0       0       0       0       0       0       0       0
       0       0       0       0       0       0       0       0       0       0
       0       0       0       0       0       0       0       0       0       0
       0       0       0       0       0       0       0       0       0       0
       0       0       0       0       0       0       0       0       0       0
       0       0       0       0       0       0       0       0       0       0
       0       0       0       0       0       0       0       0       0       0
       0       0       0       0       0       0       0       0       0       0
       0       0       0       0       0       0       0       0       0       0
       0       0       0       0       0       0       0       0       0       0
       0       0       0       0       0       0       0       0       0       0
       0       0       0       0       0       0       0       0       0       0
       0       0       0       0       0       0       0       0       0       0
       0       0       0       0       0       0       0       0       0       0
       0       0       0       0       0       0       0       0       0       0
       0       0       0       0       0       0       0       0       0       0
       0       0       0       0       0       0       0       0       0       0
       0       0       0       0       0       0       0       0       0       0
       0       0       0       0       0       0       0       0       0       0
       0       0       0       0       0       0       0       0       0       0
       0       0       0       0       0       0       0       0       0       0
       0       0       0       0       0       0       0       0       0       0
       0       0       0       0       0       0       0       0       0       0
       0       0       0       0       0       0       0       0       0       0
       0       0       0       0       0       0       0       0       0       0
       0       0       0       0       0       0       0       0       0       0
       0       0       0       0       0       0       0       0       0       0
       0       0       0       0       0       0       0       0       0       0
       0       0       0       0       0       0       0       0       0       0
       0       0       0       0       0       0       0       0       0       0
       0       0       0       0       0       0       0       0       0       0
       0       0       0       0       0       0       0       0       0       0
       0       0       0       0       0       0       0       0       0       0
       0       0       0       0       0       0       0       0       0       0
       0       0       0       0       0       0       0       0       0       0
       0       0       0       0       0       0       0       0       0       0
       0       0       0       0       0       0       0       0       0       0
       0       0       0       0       0       0       0       0       0       0
       0       0       0       0       0       0       0       0       0       0
       0       0       0       0       0       0       0       0       0       0
       0       0       0       0       0       0       0       0       0       0
       0       0       0       0       0       0       0       0       0       0
       0       0       0       0       0       0       0       0       0       0
       0       0       0       0       0       0       0       0       0       0
       0       0       0       0       0       0       0       0       0       0
       0       0       0       0       0       0       0       0       0       0
       0       0       0       0       0       0       0       0       0       0
       0       0       0       0       0       0       0       0       0       0
       0       0       0       0       0       0       0       0       0       0
       0       0       0       0       0       0       0       0       0       0
       0       0       0       0       0       0       0       0       0       0
       0       0       0       0       0       0       0       0       0       0
       0       0       0       0       0       0       0       0       0       0
       0       0       0       0       0       0       0       0       0       0
       0       0       0       0       0       0       0       0       0       0
       0       0       0       0       0       0       0       0       0       0
       0       0       0       0       0       0       0       0       0       0
       0       0       0       0       0       0       0       0       0       0
       0       0       0       0       0       0       0       0       0       0
       0       0       0       0       0       0       0       0       0       0
       0       0       0       0       0       0       0       0       0       0
       0       0       0       0       0       0       0       0       0       0
       0       0       0       0       0       0       0       0       0       0
       0       0       0       0       0       0       0       0       0       0
       0       0       0       0       0       0       0       0       0       0
       0       0       0       0       0       0       0       0       0       0
       0       0       0       0       0       0       0       0       0       0
       0       0       0       0       0       0       0       0       0       0
       0       0       0       0       0       0       0       0       0       0
       0       0       0       0       0       0       0       0       0       0
       0       0       0       0       0       0       0       0       0       0
       0       0       0       0       0       0       0       0       0       0
       0       0       0       0       0       0       0       0       0       0
       0       0       0       0       0       0       0       0       0       0
       0       0       0       0       0       0       0       0       0       0
       0       0       0       0       0       0       0       0       0       0
       0       0       0       0       0       0       0       0       0       0
       0       0       0       0       0       0       0       0       0       0
       0       0       0       0       0       0       0       0       0       0
       0       0       0       0       0       0       0       0       0       0
       0       0       0       0       0       0       0       0       0       0
       0       0       0       0       0       0       0       0       0       0
       0       0       0       0       0       0       0       0       0       0
       0       0       0       0       0       0       0       0       0       0
       0       0       0       0       0       0       0       0       0       0
       0       0       0       0       0       0       0       0       0       0
       0       0       0       0       0       0       0       0       0       0
       0       0       0       0       0       0       0       0       0       0
       0       0       0       0       0       0       0       0       0       0
       0       0       0       0       0       0       0       0       0       0
       0       0       0       0       0       0       0       0       0       0
       0       0       0       0       0       0       0       0       0       0
       0       0       0       0       0       0       0       0       0       0
       0       0       0       0       0       0       0       0       0       0
       0       0       0       0       0       0       0       0       0       0
       0       0       0       0       0       0       0       0       0       0
       0       0       0       0       0       0       0       0       0       0
       0       0       0       0       0       0       0       0       0       0
       0       0       0       0       0       0       0       0       0       0
       0       0       0       0       0       0       0       0       0       0
       0       0       0       0       0       0       0       0       0       0
       0       0       0       0       0       0       0       0       0       0
       0       0       0       0       0       0       0       0       0       0
       0       0       0       0       0       0       0       0       0       0
       0       0       0       0       0       0       0       0       0       0
       0       0       0       0       0       0       0       0       0       0
       0       0       0       0       0       0       0       0       0       0
       0       0       0       0       0       0       0       0       0       0
       0       0       0       0       0       0       0       0       0       0
       0       0       0       0       0       0       0       0       0       0
       0       0       0       0       0       0       0       0       0       0
       0       0       0       0       0       0       0       0       0       0
       0       0       0       0       0       0       0       0       0       0
       0       0       0       0       0       0       0       0       0       0
       0       0       0       0       0       0       0       0       0       0
       0       0       0       0       0       0       0       0       0       0
       0       0       0       0       0       0       0       0       0       0
       0       0       0       0       0       0       0       0       0       0
       0       0       0       0       0       0       0       0       0       0
       0       0       0       0       0       0       0       0       0       0
       0       0       0       0       0       0       0       0       0       0
       0       0       0       0       0       0       0       0       0       0
       0       0       0       0       0       0       0       0       0       0
       0       0       0       0       0       0       0       0       0       0
       0       0       0       0       0       0       0       0       0       0
       0       0       0       0       0       0       0       0       0       0
       0       0       0       0       0       0       0       0       0       0
       0       0       0       0       0       0       0       0       0       0
       0       0       0       0       0       0       0       0       0       0
       0       0       0       0       0       0       0       0       0       0
       0       0       0       0       0       0       0       0       0       0
       0       0       0       0       0       0       0       0       0       0
       0       0       0       0       0       0       0       0       0       0
       0       0       0       0       0       0       0       0       0       0
       0       0       0       0       0       0       0       0       0       0
       0       0       0       0       0       0       0       0       0       0
       0       0       0       0       0       0       0       0       0       0
       0       0       0       0       0       0       0       0       0       0
       0       0       0       0       0       0       0       0       0       0
       0       0       0       0       0       0       0       0       0       0
       0       0       0       0       0       0       0       0       0       0
       0       0       0       0       0       0       0       0       0       0
       0       0       0       0       0       0       0       0       0       0
       0       0       0       0       0       0       0       0       0       0
       0       0       0       0       0       0       0       0       0       0
       0       0       0       0       0       0       0       0       0       0
       0       0       0       0       0       0       0       0       0       0
       0       0       0       0       0       0       0       0       0       0
       0       0       0       0       0       0       0       0       0       0
       0       0       0       0       0       0       0       0       0       0
       0       0       0       0       0       0       0       0       0       0
       0       0       0       0       0       0       0       0       0       0
       0       0       0       0       0       0       0       0       0       0
       0       0       0       0       0       0       0       0       0       0
       0       0       0       0       0       0       0       0       0       0
       0       0       0       0       0       0       0       0       0       0
       0       0       0       0       0       0       0       0       0       0
       0       0       0       0       0       0       0       0       0       0
       0       0       0       0       0       0       0       0       0       0
       0       0       0       0       0       0       0       0       0       0
       0       0       0       0       0       0       0       0       0       0
       0       0       0       0       0       0       0       0       0       0
       0       0       0       0       0       0       0       0       0       0
       0       0       0       0       0       0       0       0       0       0
       0       0       0       0       0       0       0       0       0       0
       0       0       0       0       0       0       0       0       0       0
       0       0       0       0       0       0       0       0       0       0
       0       0       0       0       0       0       0       0       0       0
       0       0       0       0       0       0       0       0       0       0
       0       0       0       0       0       0       0       0       0       0
       0       0       0       0       0       0       0       0       0       0
       0       0       0       0       0       0       0       0       0       0
       0       0       0       0       0       0       0       0       0       0
       0       0       0       0       0       0       0       0       0       0
       0       0       0       0       0       0       0       0       0       0
       0       0       0       0       0       0       0       0       0       0
       0       0       0       0       0       0       0       0       0       0
       0       0       0       0       0       0       0       0       0       0
       0       0       0       0       0       0       0       0       0       0
       0       0       0       0       0       0       0       0       0       0
       0       0       0       0       0       0       0       0       0       0
       0       0       0       0       0       0       0       0       0       0
       0       0       0       0       0       0       0       0       0       0
       0       0       0       0       0       0       0       0       0       0
       0       0       0       0       0       0       0       0       0       0
       0       0       0       0       0       0       0       0       0       0
       0       0       0       0       0       0       0       0       0       0
       0       0       0       0       0       0       0       0       0       0
       0       0       0       0       0       0       0       0       0       0
       0       0       0       0       0       0       0       0       0       0
       0       0       0       0       0       0       0       0       0       0
       0       0       0       0       0       0       0       0       0       0
       0       0       0       0       0       0       0       0       0       0
       0       0       0       0       0       0       0       0       0       0
       0       0       0       0       0       0       0       0       0       0
       0       0       0       0       0       0       0       0       0       0
       0       0       0       0       0       0       0       0       0       0
       0       0       0       0       0       0       0       0       0       0
       0       0       0       0       0       0       0       0       0       0
       0       0       0       0       0       0       0       0       0       0
       0       0       0       0       0       0       0       0       0       0
       0       0       0       0       0       0       0       0       0       0
       0       0       0       0       0       0       0       0       0       0
       0       0       0       0       0       0       0       0       0       0
       0       0       0       0       0       0       0       0       0       0
       0       0       0       0       0       0       0       0       0       0
       0       0       0       0       0       0       0       0       0       0
       0       0       0       0       0       0       0       0       0       0
       0       0       0       0       0       0       0       0       0       0
       0       0       0       0       0       0       0       0       0       0
       0       0       0       0       0       0       0       0       0       0
       0       0       0       0       0       0       0       0       0       0
       0       0       0       0       0       0       0       0       0       0
       0       0       0       0       0       0       0       0       0       0
       0       0       0       0       0       0       0       0       0       0
       0       0       0       0       0       0       0       0       0       0
       0       0       0       0       0       0       0       0       0       0
       0       0       0       0       0       0       0       0       0       0
       0       0       0       0       0       0       0       0       0       0
       0       0       0       0       0       0       0       0       0       0
       0       0       0       0       0       0       0       0       0       0
       0       0       0       0       0       0       0       0       0       0
       0       0       0       0       0       0       0       0       0       0
       0       0       0       0       0       0       0       0       0       0
       0       0       0       0       0       0       0       0       0       0
       0       0       0       0       0       0       0       0       0       0
       0       0       0       0       0       0       0       0       0       0
       0       0       0       0       0       0       0       0       0       0
       0       0       0       0       0       0       0       0       0       0
       0       0       0       0       0       0       0       0       0       0
       0       0       0       0       0       0       0       0       0       0
       0       0       0       0       0       0       0       0       0       0
       0       0       0       0       0       0       0       0       0       0
       0       0       0       0       0       0       0       0       0       0
       0       0       0       0       0       0       0       0       0       0
       0       0       0       0       0       0       0       0       0       0
       0       0       0       0       0       0       0       0       0       0
       0       0       0       0       0       0       0       0       0       0
       0       0       0       0       0       0       0       0       0       0
       0       0       0       0       0       0       0       0       0       0
       0       0       0       0       0       0       0       0       0       0
       0       0       0       0       0       0       0       0       0       0
       0       0       0       0       0       0       0       0       0       0
       0       0       0       0       0       0       0       0       0       0
       0       0       0       0       0       0       0       0       0       0
       0       0       0       0       0       0       0       0       0       0
       0       0       0       0       0       0       0       0       0       0
       0       0       0       0       0       0       0       0       0       0
       0       0       0       0       0       0       0       0       0       0
       0       0       0       0       0       0       0       0       0       0
       0       0       0       0       0       0       0       0       0       0
       0       0       0       0       0       0       0       0       0       0
       0       0       0       0       0       0       0       0       0       0
       0       0       0       0       0       0       0       0       0       0
       0       0       0       0       0       0       0       0       0       0
       0       0       0       0       0       0       0       0       0       0
       0       0       0       0       0       0       0       0       0       0
       0       0       0       0       0       0       0       0       0       0
       0       0       0       0       0       0       0       0       0       0
       0       0       0       0       0       0       0       0       0       0
       0       0       0       0       0       0       0       0       0       0
       0       0       0       0       0       0       0       0       0       0
       0       0       0       0       0       0       0       0       0       0
       0       0       0       0       0       0       0       0       0       0
       0       0       0       0       0       0       0       0       0       0
       0       0       0       0       0       0       0       0       0       0
       0       0       0       0       0       0       0       0       0       0
       0       0       0       0       0       0       0       0       0       0
       0       0       0       0       0       0       0       0       0       0
       0       0       0       0       0       0       0       0       0       0
       0       0       0       0       0       0       0       0       0       0
       0       0       0       0       0       0       0       0       0       0
       0       0       0       0       0       0       0       0       0       0
       0       0       0       0       0       0       0       0       0       0
       0       0       0       0       0       0       0       0       0       0
       0       0       0       0       0       0       0       0       0       0
       0       0       0       0       0       0       0       0       0       0
       0       0       0       0       0       0       0       0       0       0
       0       0       0       0       0       0       0       0       0       0
       0       0       0       0       0       0       0       0       0       0
       0       0       0       0       0       0       0       0       0       0
       0       0       0       0       0       0       0       0       0       0
       0       0       0       0       0       0       0       0       0       0
       0       0       0       0       0       0       0       0       0       0
       0       0       0       0       0       0       0       0       0       0
       0       0       0       0       0       0       0       0       0       0
       0       0       0       0       0       0       0       0       0       0
       0       0       0       0       0       0       0       0       0       0
       0       0       0       0       0       0       0       0       0       0
       0       0       0       0       0       0       0       0       0       0
       0       0       0       0       0       0       0       0       0       0
       0       0       0       0       0       0       0       0       0       0
       0       0       0       0       0       0       0       0       0       0
       0       0       0       0       0       0       0       0       0       0
       0       0       0       0       0       0       0       0       0       0
       0       0       0       0       0       0       0       0       0       0
       0       0       0       0       0       0       0       0       0       0
       0       0       0       0       0       0       0       0       0       0
       0       0       0       0       0       0       0       0       0       0
       0       0       0       0       0       0       0       0       0       0
       0       0       0       0       0       0       0       0       0       0
       0       0       0       0       0       0       0       0       0       0
       0       0       0       0       0       0       0       0       0       0
       0       0       0       0       0       0       0       0       0       0
       0       0       0       0       0       0       0       0       0       0
       0       0       0       0       0       0       0       0       0       0
       0       0       0       0       0       0       0       0       0       0
       0       0       0       0       0       0       0       0       0       0
       0       0       0       0       0       0       0       0       0       0
       0       0       0       0       0       0       0       0       0       0
       0       0       0       0       0       0       0       0       0       0
       0       0       0       0       0       0       0       0       0       0
       0       0       0       0       0       0       0       0       0       0
       0       0       0       0       0       0       0       0       0       0
       0       0       0       0       0       0       0       0       0       0
       0       0       0       0       0       0       0       0       0       0
       0       0       0       0       0       0       0       0       0       0
       0       0       0       0       0       0       0       0       0       0
       0       0       0       0       0       0       0       0       0       0
       0       0       0       0       0       0       0       0       0       0
       0       0       0       0       0       0       0       0       0       0
       0       0       0       0       0       0       0       0       0       0
       0       0       0       0       0       0       0       0       0       0
       0       0       0       0       0       0       0       0       0       0
       0       0       0       0       0       0       0       0       0       0
       0       0       0       0       0       0       0       0       0       0
       0       0       0       0       0       0       0       0       0       0
       0       0       0       0       0       0       0       0       0       0
       0       0       0       0       0       0       0       0       0       0
       0       0       0       0       0       0       0       0       0       0
       0       0       0       0       0       0       0       0       0       0
       0       0       0       0       0       0       0       0       0       0
       0       0       0       0       0       0       0       0       0       0
       0       0       0       0       0       0       0       0       0       0
       0       0       0       0       0       0       0       0       0       0
       0       0       0       0       0       0       0       0       0       0
       0       0       0       0       0       0       0       0       0       0
       0       0       0       0       0       0       0       0       0       0
       0       0       0       0       0       0       0       0       0       0
       0       0       0       0       0       0       0       0       0       0
       0       0       0       0       0       0       0       0       0       0
       0       0       0       0       0       0       0       0       0       0
       0       0       0       0       0       0       0       0       0       0
       0       0       0       0       0       0       0       0       0       0
       0       0       0       0       0       0       0       0       0       0
       0       0       0       0       0       0       0       0       0       0
       0       0       0       0       0       0       0       0       0       0
       0       0       0       0       0       0       0       0       0       0
       0       0       0       0       0       0       0       0       0       0
       0       0       0       0       0       0       0       0       0       0
       0       0       0       0       0       0       0       0       0       0
       0       0       0       0       0       0       0       0       0       0
       0       0       0       0       0       0       0       0       0       0
       0       0       0       0       0       0       0       0       0       0
       0       0       0       0       0       0       0       0       0       0
       0       0       0       0       0       0       0       0       0       0
       0       0       0       0       0       0       0       0       0       0
       0       0       0       0       0       0       0       0       0       0
       0       0       0       0       0       0       0       0       0       0
       0       0       0       0       0       0       0       0       0       0
       0       0       0       0       0       0       0       0       0       0
       0       0       0       0       0       0       0       0       0       0
       0       0       0       0       0       0       0       0       0       0
       0       0       0       0       0       0       0       0       0       0
       0       0       0       0       0       0       0       0       0       0
       0       0       0       0       0       0       0       0       0       0
       0       0       0       0       0       0       0       0       0       0
       0       0       0       0       0       0       0       0       0       0
       0       0       0       0       0       0       0       0       0       0
       0       0       0       0       0       0       0       0       0       0
       0       0       0       0       0       0       0       0       0       0
       0       0       0       0       0       0       0       0       0       0
       0       0       0       0       0       0       0       0       0       0
       0       0       0       0       0       0       0       0       0       0
       0       0       0       0       0       0       0       0       0       0
       0       0       0       0       0       0       0       0       0       0
       0       0       0       0       0       0       0       0       0       0
       0       0       0       0       0       0       0       0       0       0
       0       0       0       0       0       0       0       0       0       0
       0       0       0       0       0       0       0       0       0       0
       0       0       0       0       0       0       0       0       0       0
       0       0       0       0       0       0       0       0       0       0
       0       0       0       0       0       0       0       0       0       0
       0       0       0       0       0       0       0       0       0       0
       0       0       0       0       0       0       0       0       0       0
       0       0       0       0       0       0       0       0       0       0
       0       0       0       0       0       0       0       0       0       0
       0       0       0       0       0       0       0       0       0       0
       0       0       0       0       0       0       0       0       0       0
       0       0       0       0       0       0       0       0       0       0
       0       0       0       0       0       0       0       0       0       0
       0       0       0       0       0       0       0       0       0       0
       0       0       0       0       0       0       0       0       0       0
       0       0       0       0       0       0       0       0       0       0
       0       0       0       0       0       0       0       0       0       0
       0       0       0       0       0       0       0       0       0       0
       0       0       0       0       0       0       0       0       0       0
       0       0       0       0       0       0       0       0       0       0
       0       0       0       0       0       0       0       0       0       0
       0       0       0       0       0       0       0       0       0       0
       0       0       0       0       0       0       0       0       0       0
       0       0       0       0       0       0       0       0       0       0
       0       0       0       0       0       0       0       0       0       0
       0       0       0       0       0       0       0       0       0       0
       0       0       0       0       0       0       0       0       0       0
       0       0       0       0       0       0       0       0       0       0
       0       0       0       0       0       0       0       0       0       0
       0       0       0       0       0       0       0       0       0       0
       0       0       0       0       0       0       0       0       0       0
       0       0       0       0       0       0       0       0       0       0
       0       0       0       0       0       0       0       0       0       0
       0       0       0       0       0       0       0       0       0       0
       0       0       0       0       0       0       0       0       0       0
       0       0       0       0       0       0       0       0       0       0
       0       0       0       0       0       0       0       0       0       0
       0       0       0       0       0       0       0       0       0       0
       0       0       0       0       0       0       0       0       0       0
       0       0       0       0       0       0       0       0       0       0
       0       0       0       0       0       0       0       0       0       0
       0       0       0       0       0       0       0       0       0       0
       0       0       0       0       0       0       0       0       0       0
       0       0       0       0       0       0       0       0       0       0
       0       0       0       0       0       0       0       0       0       0
       0       0       0       0       0       0       0       0       0       0
       0       0       0       0       0       0       0       0       0       0
       0       0       0       0       0       0       0       0       0       0
       0       0       0       0       0       0       0       0       0       0
       0       0       0       0       0       0       0       0       0       0
       0       0       0       0       0       0       0       0       0       0
       0       0       0       0       0       0       0       0       0       0
       0       0       0       0       0       0       0       0       0       0
       0       0       0       0       0       0       0       0       0       0
       0       0       0       0       0       0       0       0       0       0
       0       0       0       0       0       0       0       0       0       0
       0       0       0       0       0       0       0       0       0       0
       0       0       0       0       0       0       0       0       0       0
       0       0       0       0       0       0       0       0       0       0
       0       0       0       0       0       0       0       0       0       0
       0       0       0       0       0       0       0       0       0       0
       0       0       0       0       0       0       0       0       0       0
       0       0       0       0       0       0       0       0       0       0
       0       0       0       0       0       0       0       0       0       0
       0       0       0       0       0       0       0       0       0       0
       0       0       0       0       0       0       0       0       0       0
       0       0       0       0       0       0       0       0       0       0
       0       0       0       0       0       0       0       0       0       0
       0       0       0       0       0       0       0       0       0       0
       0       0       0       0       0       0       0       0       0       0
       0       0       0       0       0       0       0       0       0       0
       0       0       0       0       0       0       0       0       0       0
       0       0       0       0       0       0       0       0       0       0
       0       0       0       0       0       0       0       0       0       0
       0       0       0       0       0       0       0       0       0       0
       0       0       0       0       0       0       0       0       0       0
       0       0       0       0       0       0       0       0       0       0
       0       0       0       0       0       0       0       0       0       0
       0       0       0       0       0       0       0       0       0       0
       0       0       0       0       0       0       0       0       0       0
       0       0       0       0       0       0       0       0       0       0
       0       0       0       0       0       0       0       0       0       0
       0       0       0       0       0       0       0       0       0       0
       0       0       0       0       0       0       0       0       0       0
       0       0       0       0       0       0       0       0       0       0
       0       0       0       0       0       0       0       0       0       0
       0       0       0       0       0       0       0       0       0       0
       0       0       0       0       0       0       0       0       0       0
       0       0       0       0       0       0       0       0       0       0
       0       0       0       0       0       0       0       0       0       0
       0       0       0       0       0       0       0       0       0       0
       0       0       0       0       0       0       0       0       0       0
       0       0       0       0       0       0       0       0       0       0
       0       0       0       0       0       0       0       0       0       0
       0       0       0       0       0       0       0       0       0       0
       0       0       0       0       0       0       0       0       0       0
       0       0       0       0       0       0       0       0       0       0
       0       0       0       0       0       0       0       0       0       0
       0       0       0       0       0       0       0       0       0       0
       0       0       0       0       0       0       0       0       0       0
       0       0       0       0       0       0       0       0       0       0
       0       0       0       0       0       0       0       0       0       0
       0       0       0       0       0       0       0       0       0       0
       0       0       0       0       0       0       0       0       0       0
       0       0       0       0       0       0       0       0       0       0
       0       0       0       0       0       0       0       0       0       0
       0       0       0       0       0       0       0       0       0       0
       0       0       0       0       0       0       0       0       0       0
       0       0       0       0       0       0       0       0       0       0
       0       0       0       0       0       0       0       0       0       0
       0       0       0       0       0       0       0       0       0       0
       0       0       0       0       0       0       0       0       0       0
       0       0       0       0       0       0       0       0       0       0
       0       0       0       0       0       0       0       0       0       0
       0       0       0       0       0       0       0       0       0       0
       0       0       0       0       0       0       0       0       0       0
       0       0       0       0       0       0       0       0       0       0
       0       0       0       0       0       0       0       0       0       0
       0       0       0       0       0       0       0       0       0       0
       0       0       0       0       0       0       0       0       0       0
       0       0       0       0       0       0       0       0       0       0
       0       0       0       0       0       0       0       0       0       0
       0       0       0       0       0       0       0       0       0       0
       0       0       0       0       0       0       0       0       0       0
       0       0       0       0       0       0       0       0       0       0
       0       0       0       0       0       0       0       0       0       0
       0       0       0       0       0       0       0       0       0       0
       0       0       0       0       0       0       0       0       0       0
       0       0       0       0       0       0       0       0       0       0
       0       0       0       0       0       0       0       0       0       0
       0       0       0       0       0       0       0       0       0       0
       0       0       0       0       0       0       0       0       0       0
       0       0       0       0       0       0       0       0       0       0
       0       0       0       0       0       0       0       0       0       0
       0       0       0       0       0       0       0       0       0       0
       0       0       0       0       0       0       0       0       0       0
       0       0       0       0       0       0       0       0       0       0
       0       0       0       0       0       0       0       0       0       0
       0       0       0       0       0       0       0       0       0       0
       0       0       0       0       0       0       0       0       0       0
       0       0       0       0       0       0       0       0       0       0
       0       0       0       0       0       0       0       0       0       0
       0       0       0       0       0       0       0       0       0       0
       0       0       0       0       0       0       0       0       0       0
       0       0       0       0       0       0       0       0       0       0
       0       0       0       0       0       0       0       0       0       0
       0       0       0       0       0       0       0       0       0       0
       0       0       0       0       0       0       0       0       0       0
       0       0       0       0       0       0       0       0       0       0
       0       0       0       0       0       0       0       0       0       0
       0       0       0       0       0       0       0       0       0       0
       0       0       0       0       0       0       0       0       0       0
       0       0       0       0       0       0       0       0       0       0
       0       0       0       0       0       0       0       0       0       0
       0       0       0       0       0       0       0       0       0       0
       0       0       0       0       0       0       0       0       0       0
       0       0       0       0       0       0       0       0       0       0
       0       0       0       0       0       0       0       0       0       0
       0       0       0       0       0       0       0       0       0       0
       0       0       0       0       0       0       0       0       0       0
       0       0       0       0       0       0       0       0       0       0
       0       0       0       0       0       0       0       0       0       0
       0       0       0       0       0       0       0       0       0       0
       0       0       0       0       0       0       0       0       0       0
       0       0       0       0       0       0       0       0       0       0
       0       0       0       0       0       0       0       0       0       0
       0       0       0       0       0       0       0       0       0       0
       0       0       0       0       0       0       0       0       0       0
       0       0       0       0       0       0       0       0       0       0
       0       0       0       0       0       0       0       0       0       0
       0       0       0       0       0       0       0       0       0       0
       0       0       0       0       0       0       0       0       0       0
       0       0       0       0       0       0       0       0       0       0
       0       0       0       0       0       0       0       0       0       0
       0       0       0       0       0       0       0       0       0       0
       0       0       0       0       0       0       0       0       0       0
       0       0       0       0       0       0       0       0       0       0
       0       0       0       0       0       0       0       0       0       0
       0       0       0       0       0       0       0       0       0       0
       0       0       0       0       0       0       0       0       0       0
       0       0       0       0       0       0       0       0       0       0
       0       0       0       0       0       0       0       0       0       0
       0       0       0       0       0       0       0       0       0       0
       0       0       0       0       0       0       0       0       0       0
       0       0       0       0       0       0       0       0       0       0
       0       0       0       0       0       0       0       0       0       0
       0       0       0       0       0       0       0       0       0       0
       0       0       0       0       0       0       0       0       0       0
       0       0       0       0       0       0       0       0       0       0
       0       0       0       0       0       0       0       0       0       0
       0       0       0       0       0       0       0       0       0       0
       0       0       0       0       0       0       0       0       0       0
       0       0       0       0       0       0       0       0       0       0
       0       0       0       0       0       0       0       0       0       0
       0       0       0       0       0       0       0       0       0       0
       0       0       0       0       0       0       0       0       0       0
       0       0       0       0       0       0       0       0       0       0
       0       0       0       0       0       0       0       0       0       0
       0       0       0       0       0       0       0       0       0       0
       0       0       0       0       0       0       0       0       0       0
       0       0       0       0       0       0       0       0       0       0
       0       0       0       0       0       0       0       0       0       0
       0       0       0       0       0       0       0       0       0       0
       0       0       0       0       0       0       0       0       0       0
       0       0       0       0       0       0       0       0       0       0
       0       0       0       0       0       0       0       0       0       0
       0       0       0       0       0       0       0       0       0       0
       0       0       0       0       0       0       0       0       0       0
       0       0       0       0       0       0       0       0       0       0
       0       0       0       0       0       0       0       0       0       0
       0       0       0       0       0       0       0       0       0       0
       0       0       0       0       0       0       0       0       0       0
       0       0       0       0       0       0       0       0       0       0
       0       0       0       0       0       0       0       0       0       0
       0       0       0       0       0       0       0       0       0       0
       0       0       0       0       0       0       0       0       0       0
       0       0       0       0       0       0       0       0       0       0
       0       0       0       0       0       0       0       0       0       0
       0       0       0       0       0       0       0       0       0       0
       0       0       0       0       0       0       0       0       0       0
       0       0       0       0       0       0       0       0       0       0
       0       0       0       0       0       0       0       0       0       0
       0       0       0       0       0       0       0       0       0       0
       0       0       0       0       0       0       0       0
%FLAG IROTAT                                                                    
%FORMAT(10I8)                                                                   
       0       0       0       0       0       0       0       0       0       0
       0       0       0       0       0       0       0       0       0       0
       0       0       0       0       0       0       0       0       0       0
       0       0       0       0       0       0       0       0       0       0
       0       0       0       0       0       0       0       0       0       0
       0       0       0       0       0       0       0       0       0       0
       0       0       0       0       0       0       0       0       0       0
       0       0       0       0       0       0       0       0       0       0
       0       0       0       0       0       0       0       0       0       0
       0       0       0       0       0       0       0       0       0       0
       0       0       0       0       0       0       0       0       0       0
       0       0       0       0       0       0       0       0       0       0
       0       0       0       0       0       0       0       0       0       0
       0       0       0       0       0       0       0       0       0       0
       0       0       0       0       0       0       0       0       0       0
       0       0       0       0       0       0       0       0       0       0
       0       0       0       0       0       0       0       0       0       0
       0       0       0       0       0       0       0       0       0       0
       0       0       0       0       0       0       0       0       0       0
       0       0       0       0       0       0       0       0       0       0
       0       0       0       0       0       0       0       0       0       0
       0       0       0       0       0       0       0       0       0       0
       0       0       0       0       0       0       0       0       0       0
       0       0       0       0       0       0       0       0       0       0
       0       0       0       0       0       0       0       0       0       0
       0       0       0       0       0       0       0       0       0       0
       0       0       0       0       0       0       0       0       0       0
       0       0       0       0       0       0       0       0       0       0
       0       0       0       0       0       0       0       0       0       0
       0       0       0       0       0       0       0       0       0       0
       0       0       0       0       0       0       0       0       0       0
       0       0       0       0       0       0       0       0       0       0
       0       0       0       0       0       0       0       0       0       0
       0       0       0       0       0       0       0       0       0       0
       0       0       0       0       0       0       0       0       0       0
       0       0       0       0       0       0       0       0       0       0
       0       0       0       0       0       0       0       0       0       0
       0       0       0       0       0       0       0       0       0       0
       0       0       0       0       0       0       0       0       0       0
       0       0       0       0       0       0       0       0       0       0
       0       0       0       0       0       0       0       0       0       0
       0       0       0       0       0       0       0       0       0       0
       0       0       0       0       0       0       0       0       0       0
       0       0       0       0       0       0       0       0       0       0
       0       0       0       0       0       0       0       0       0       0
       0       0       0       0       0       0       0       0       0       0
       0       0       0       0       0       0       0       0       0       0
       0       0       0       0       0       0       0       0       0       0
       0       0       0       0       0       0       0       0       0       0
       0       0       0       0       0       0       0       0       0       0
       0       0       0       0       0       0       0       0       0       0
       0       0       0       0       0       0       0       0       0       0
       0       0       0       0       0       0       0       0       0       0
       0       0       0       0       0       0       0       0       0       0
       0       0       0       0       0       0       0       0       0       0
       0       0       0       0       0       0       0       0       0       0
       0       0       0       0       0       0       0       0       0       0
       0       0       0       0       0       0       0       0       0       0
       0       0       0       0       0       0       0       0       0       0
       0       0       0       0       0       0       0       0       0       0
       0       0       0       0       0       0       0       0       0       0
       0       0       0       0       0       0       0       0       0       0
       0       0       0       0       0       0       0       0       0       0
       0       0       0       0       0       0       0       0       0       0
       0       0       0       0       0       0       0       0       0       0
       0       0       0       0       0       0       0       0       0       0
       0       0       0       0       0       0       0       0       0       0
       0       0       0       0       0       0       0       0       0       0
       0       0       0       0       0       0       0       0       0       0
       0       0       0       0       0       0       0       0       0       0
       0       0       0       0       0       0       0       0       0       0
       0       0       0       0       0       0       0       0       0       0
       0       0       0       0       0       0       0       0       0       0
       0       0       0       0       0       0       0       0       0       0
       0       0       0       0       0       0       0       0       0       0
       0       0       0       0       0       0       0       0       0       0
       0       0       0       0       0       0       0       0       0       0
       0       0       0       0       0       0       0       0       0       0
       0       0       0       0       0       0       0       0       0       0
       0       0       0       0       0       0       0       0       0       0
       0       0       0       0       0       0       0       0       0       0
       0       0       0       0       0       0       0       0       0       0
       0       0       0       0       0       0       0       0       0       0
       0       0       0       0       0       0       0       0       0       0
       0       0       0       0       0       0       0       0       0       0
       0       0       0       0       0       0       0       0       0       0
       0       0       0       0       0       0       0       0       0       0
       0       0       0       0       0       0       0       0       0       0
       0       0       0       0       0       0       0       0       0       0
       0       0       0       0       0       0       0       0       0       0
       0       0       0       0       0       0       0       0       0       0
       0       0       0       0       0       0       0       0       0       0
       0       0       0       0       0       0       0       0       0       0
       0       0       0       0       0       0       0       0       0       0
       0       0       0       0       0       0       0       0       0       0
       0       0       0       0       0       0       0       0       0       0
       0       0       0       0       0       0       0       0       0       0
       0       0       0       0       0       0       0       0       0       0
       0       0       0       0       0       0       0       0       0       0
       0       0       0       0       0       0       0       0       0       0
       0       0       0       0       0       0       0       0       0       0
       0       0       0       0       0       0       0       0       0       0
       0       0       0       0       0       0       0       0       0       0
       0       0       0       0       0       0       0       0       0       0
       0       0       0       0       0       0       0       0       0       0
       0       0       0       0       0       0       0       0       0       0
       0       0       0       0       0       0       0       0       0       0
       0       0       0       0       0       0       0       0       0       0
       0       0       0       0       0       0       0       0       0       0
       0       0       0       0       0       0       0       0       0       0
       0       0       0       0       0       0       0       0       0       0
       0       0       0       0       0       0       0       0       0       0
       0       0       0       0       0       0       0       0       0       0
       0       0       0       0       0       0       0       0       0       0
       0       0       0       0       0       0       0       0       0       0
       0       0       0       0       0       0       0       0       0       0
       0       0       0       0       0       0       0       0       0       0
       0       0       0       0       0       0       0       0       0       0
       0       0       0       0       0       0       0       0       0       0
       0       0       0       0       0       0       0       0       0       0
       0       0       0       0       0       0       0       0       0       0
       0       0       0       0       0       0       0       0       0       0
       0       0       0       0       0       0       0       0       0       0
       0       0       0       0       0       0       0       0       0       0
       0       0       0       0       0       0       0       0       0       0
       0       0       0       0       0       0       0       0       0       0
       0       0       0       0       0       0       0       0       0       0
       0       0       0       0       0       0       0       0       0       0
       0       0       0       0       0       0       0       0       0       0
       0       0       0       0       0       0       0       0       0       0
       0       0       0       0       0       0       0       0       0       0
       0       0       0       0       0       0       0       0       0       0
       0       0       0       0       0       0       0       0       0       0
       0       0       0       0       0       0       0       0       0       0
       0       0       0       0       0       0       0       0       0       0
       0       0       0       0       0       0       0       0       0       0
       0       0       0       0       0       0       0       0       0       0
       0       0       0       0       0       0       0       0       0       0
       0       0       0       0       0       0       0       0       0       0
       0       0       0       0       0       0       0       0       0       0
       0       0       0       0       0       0       0       0       0       0
       0       0       0       0       0       0       0       0       0       0
       0       0       0       0       0       0       0       0       0       0
       0       0       0       0       0       0       0       0       0       0
       0       0       0       0       0       0       0       0       0       0
       0       0       0       0       0       0       0       0       0       0
       0       0       0       0       0       0       0       0       0       0
       0       0       0       0       0       0       0       0       0       0
       0       0       0       0       0       0       0       0       0       0
       0       0       0       0       0       0       0       0       0       0
       0       0       0       0       0       0       0       0       0       0
       0       0       0       0       0       0       0       0       0       0
       0       0       0       0       0       0       0       0       0       0
       0       0       0       0       0       0       0       0       0       0
       0       0       0       0       0       0       0       0       0       0
       0       0       0       0       0       0       0       0       0       0
       0       0       0       0       0       0       0       0       0       0
       0       0       0       0       0       0       0       0       0       0
       0       0       0       0       0       0       0       0       0       0
       0       0       0       0       0       0       0       0       0       0
       0       0       0       0       0       0       0       0       0       0
       0       0       0       0       0       0       0       0       0       0
       0       0       0       0       0       0       0       0       0       0
       0       0       0       0       0       0       0       0       0       0
       0       0       0       0       0       0       0       0       0       0
       0       0       0       0       0       0       0       0       0       0
       0       0       0       0       0       0       0       0       0       0
       0       0       0       0       0       0       0       0       0       0
       0       0       0       0       0       0       0       0       0       0
       0       0       0       0       0       0       0       0       0       0
       0       0       0       0       0       0       0       0       0       0
       0       0       0       0       0       0       0       0       0       0
       0       0       0       0       0       0       0       0       0       0
       0       0       0       0       0       0       0       0       0       0
       0       0       0       0       0       0       0       0       0       0
       0       0       0       0       0       0       0       0       0       0
       0       0       0       0       0       0       0       0       0       0
       0       0       0       0       0       0       0       0       0       0
       0       0       0       0       0       0       0       0       0       0
       0       0       0       0       0       0       0       0       0       0
       0       0       0       0       0       0       0       0       0       0
       0       0       0       0       0       0       0       0       0       0
       0       0       0       0       0       0       0       0       0       0
       0       0       0       0       0       0       0       0       0       0
       0       0       0       0       0       0       0       0       0       0
       0       0       0       0       0       0       0       0       0       0
       0       0       0       0       0       0       0       0       0       0
       0       0       0       0       0       0       0       0       0       0
       0       0       0       0       0       0       0       0       0       0
       0       0       0       0       0       0       0       0       0       0
       0       0       0       0       0       0       0       0       0       0
       0       0       0       0       0       0       0       0       0       0
       0       0       0       0       0       0       0       0       0       0
       0       0       0       0       0       0       0       0       0       0
       0       0       0       0       0       0       0       0       0       0
       0       0       0       0       0       0       0       0       0       0
       0       0       0       0       0       0       0       0       0       0
       0       0       0       0       0       0       0       0       0       0
       0       0       0       0       0       0       0       0       0       0
       0       0       0       0       0       0       0       0       0       0
       0       0       0       0       0       0       0       0       0       0
       0       0       0       0       0       0       0       0       0       0
       0       0       0       0       0       0       0       0       0       0
       0       0       0       0       0       0       0       0       0       0
       0       0       0       0       0       0       0       0       0       0
       0       0       0       0       0       0       0       0       0       0
       0       0       0       0       0       0       0       0       0       0
       0       0       0       0       0       0       0       0       0       0
       0       0       0       0       0       0       0       0       0       0
       0       0       0       0       0       0       0       0       0       0
       0       0       0       0       0       0       0       0       0       0
       0       0       0       0       0       0       0       0       0       0
       0       0       0       0       0       0       0       0       0       0
       0       0       0       0       0       0       0       0       0       0
       0       0       0       0       0       0       0       0       0       0
       0       0       0       0       0       0       0       0       0       0
       0       0       0       0       0       0       0       0       0       0
       0       0       0       0       0       0       0       0       0       0
       0       0       0       0       0       0       0       0       0       0
       0       0       0       0       0       0       0       0       0       0
       0       0       0       0       0       0       0       0       0       0
       0       0       0       0       0       0       0       0       0       0
       0       0       0       0       0       0       0       0       0       0
       0       0       0       0       0       0       0       0       0       0
       0       0       0       0       0       0       0       0       0       0
       0       0       0       0       0       0       0       0       0       0
       0       0       0       0       0       0       0       0       0       0
       0       0       0       0       0       0       0       0       0       0
       0       0       0       0       0       0       0       0       0       0
       0       0       0       0       0       0       0       0       0       0
       0       0       0       0       0       0       0       0       0       0
       0       0       0       0       0       0       0       0       0       0
       0       0       0       0       0       0       0       0       0       0
       0       0       0       0       0       0       0       0       0       0
       0       0       0       0       0       0       0       0       0       0
       0       0       0       0       0       0       0       0       0       0
       0       0       0       0       0       0       0       0       0       0
       0       0       0       0       0       0       0       0       0       0
       0       0       0       0       0       0       0       0       0       0
       0       0       0       0       0       0       0       0       0       0
       0       0       0       0       0       0       0       0       0       0
       0       0       0       0       0       0       0       0       0       0
       0       0       0       0       0       0       0       0       0       0
       0       0       0       0       0       0       0       0       0       0
       0       0       0       0       0       0       0       0       0       0
       0       0       0       0       0       0       0       0       0       0
       0       0       0       0       0       0       0       0       0       0
       0       0       0       0       0       0       0       0       0       0
       0       0       0       0       0       0       0       0       0       0
       0       0       0       0       0       0       0       0       0       0
       0       0       0       0       0       0       0       0       0       0
       0       0       0       0       0       0       0       0       0       0
       0       0       0       0       0       0       0       0       0       0
       0       0       0       0       0       0       0       0       0       0
       0       0       0       0       0       0       0       0       0       0
       0       0       0       0       0       0       0       0       0       0
       0       0       0       0       0       0       0       0       0       0
       0       0       0       0       0       0       0       0       0       0
       0       0       0       0       0       0       0       0       0       0
       0       0       0       0       0       0       0       0       0       0
       0       0       0       0       0       0       0       0       0       0
       0       0       0       0       0       0       0       0       0       0
       0       0       0       0       0       0       0       0       0       0
       0       0       0       0       0       0       0       0       0       0
       0       0       0       0       0       0       0       0       0       0
       0       0       0       0       0       0       0       0       0       0
       0       0       0       0       0       0       0       0       0       0
       0       0       0       0       0       0       0       0       0       0
       0       0       0       0       0       0       0       0       0       0
       0       0       0       0       0       0       0       0       0       0
       0       0       0       0       0       0       0       0       0       0
       0       0       0       0       0       0       0       0       0       0
       0       0       0       0       0       0       0       0       0       0
       0       0       0       0       0       0       0       0       0       0
       0       0       0       0       0       0       0       0       0       0
       0       0       0       0       0       0       0       0       0       0
       0       0       0       0       0       0       0       0       0       0
       0       0       0       0       0       0       0       0       0       0
       0       0       0       0       0       0       0       0       0       0
       0       0       0       0       0       0       0       0       0       0
       0       0       0       0       0       0       0       0       0       0
       0       0       0       0       0       0       0       0       0       0
       0       0       0       0       0       0       0       0       0       0
       0       0       0       0       0       0       0       0       0       0
       0       0       0       0       0       0       0       0       0       0
       0       0       0       0       0       0       0       0       0       0
       0       0       0       0       0       0       0       0       0       0
       0       0       0       0       0       0       0       0       0       0
       0       0       0       0       0       0       0       0       0       0
       0       0       0       0       0       0       0       0       0       0
       0       0       0       0       0       0       0       0       0       0
       0       0       0       0       0       0       0       0       0       0
       0       0       0       0       0       0       0       0       0       0
       0       0       0       0       0       0       0       0       0       0
       0       0       0       0       0       0       0       0       0       0
       0       0       0       0       0       0       0       0       0       0
       0       0       0       0       0       0       0       0       0       0
       0       0       0       0       0       0       0       0       0       0
       0       0       0       0       0       0       0       0       0       0
       0       0       0       0       0       0       0       0       0       0
       0       0       0       0       0       0       0       0       0       0
       0       0       0       0       0       0       0       0       0       0
       0       0       0       0       0       0       0       0       0       0
       0       0       0       0       0       0       0       0       0       0
       0       0       0       0       0       0       0       0       0       0
       0       0       0       0       0       0       0       0       0       0
       0       0       0       0       0       0       0       0       0       0
       0       0       0       0       0       0       0       0       0       0
       0       0       0       0       0       0       0       0       0       0
       0       0       0       0       0       0       0       0       0       0
       0       0       0       0       0       0       0       0       0       0
       0       0       0       0       0       0       0       0       0       0
       0       0       0       0       0       0       0       0       0       0
       0       0       0       0       0       0       0       0       0       0
       0       0       0       0       0       0       0       0       0       0
       0       0       0       0       0       0       0       0       0       0
       0       0       0       0       0       0       0       0       0       0
       0       0       0       0       0       0       0       0       0       0
       0       0       0       0       0       0       0       0       0       0
       0       0       0       0       0       0       0       0       0       0
       0       0       0       0       0       0       0       0       0       0
       0       0       0       0       0       0       0       0       0       0
       0       0       0       0       0       0       0       0       0       0
       0       0       0       0       0       0       0       0       0       0
       0       0       0       0       0       0       0       0       0       0
       0       0       0       0       0       0       0       0       0       0
       0       0       0       0       0       0       0       0       0       0
       0       0       0       0       0       0       0       0       0       0
       0       0       0       0       0       0       0       0       0       0
       0       0       0       0       0       0       0       0       0       0
       0       0       0       0       0       0       0       0       0       0
       0       0       0       0       0       0       0       0       0       0
       0       0       0       0       0       0       0       0       0       0
       0       0       0       0       0       0       0       0       0       0
       0       0       0       0       0       0       0       0       0       0
       0       0       0       0       0       0       0       0       0       0
       0       0       0       0       0       0       0       0       0       0
       0       0       0       0       0       0       0       0       0       0
       0       0       0       0       0       0       0       0       0       0
       0       0       0       0       0       0       0       0       0       0
       0       0       0       0       0       0       0       0       0       0
       0       0       0       0       0       0       0       0       0       0
       0       0       0       0       0       0       0       0       0       0
       0       0       0       0       0       0       0       0       0       0
       0       0       0       0       0       0       0       0       0       0
       0       0       0       0       0       0       0       0       0       0
       0       0       0       0       0       0       0       0       0       0
       0       0       0       0       0       0       0       0       0       0
       0       0       0       0       0       0       0       0       0       0
       0       0       0       0       0       0       0       0       0       0
       0       0       0       0       0       0       0       0       0       0
       0       0       0       0       0       0       0       0       0       0
       0       0       0       0       0       0       0       0       0       0
       0       0       0       0       0       0       0       0       0       0
       0       0       0       0       0       0       0       0       0       0
       0       0       0       0       0       0       0       0       0       0
       0       0       0       0       0       0       0       0       0       0
       0       0       0       0       0       0       0       0       0       0
       0       0       0       0       0       0       0       0       0       0
       0       0       0       0       0       0       0       0       0       0
       0       0       0       0       0       0       0       0       0       0
       0       0       0       0       0       0       0       0       0       0
       0       0       0       0       0       0       0       0       0       0
       0       0       0       0       0       0       0       0       0       0
       0       0       0       0       0       0       0       0       0       0
       0       0       0       0       0       0       0       0       0       0
       0       0       0       0       0       0       0       0       0       0
       0       0       0       0       0       0       0       0       0       0
       0       0       0       0       0       0       0       0       0       0
       0       0       0       0       0       0       0       0       0       0
       0       0       0       0       0       0       0       0       0       0
       0       0       0       0       0       0       0       0       0       0
       0       0       0       0       0       0       0       0       0       0
       0       0       0       0       0       0       0       0       0       0
       0       0       0       0       0       0       0       0       0       0
       0       0       0       0       0       0       0       0       0       0
       0       0       0       0       0       0       0       0       0       0
       0       0       0       0       0       0       0       0       0       0
       0       0       0       0       0       0       0       0       0       0
       0       0       0       0       0       0       0       0       0       0
       0       0       0       0       0       0       0       0       0       0
       0       0       0       0       0       0       0       0       0       0
       0       0       0       0       0       0       0       0       0       0
       0       0       0       0       0       0       0       0       0       0
       0       0       0       0       0       0       0       0       0       0
       0       0       0       0       0       0       0       0       0       0
       0       0       0       0       0       0       0       0       0       0
       0       0       0       0       0       0       0       0       0       0
       0       0       0       0       0       0       0       0       0       0
       0       0       0       0       0       0       0       0       0       0
       0       0       0       0       0       0       0       0       0       0
       0       0       0       0       0       0       0       0       0       0
       0       0       0       0       0       0       0       0       0       0
       0       0       0       0       0       0       0       0       0       0
       0       0       0       0       0       0       0       0       0       0
       0       0       0       0       0       0       0       0       0       0
       0       0       0       0       0       0       0       0       0       0
       0       0       0       0       0       0       0       0       0       0
       0       0       0       0       0       0       0       0       0       0
       0       0       0       0       0       0       0       0       0       0
       0       0       0       0       0       0       0       0       0       0
       0       0       0       0       0       0       0       0       0       0
       0       0       0       0       0       0       0       0       0       0
       0       0       0       0       0       0       0       0       0       0
       0       0       0       0       0       0       0       0       0       0
       0       0       0       0       0       0       0       0       0       0
       0       0       0       0       0       0       0       0       0       0
       0       0       0       0       0       0       0       0       0       0
       0       0       0       0       0       0       0       0       0       0
       0       0       0       0       0       0       0       0       0       0
       0       0       0       0       0       0       0       0       0       0
       0       0       0       0       0       0       0       0       0       0
       0       0       0       0       0       0       0       0       0       0
       0       0       0       0       0       0       0       0       0       0
       0       0       0       0       0       0       0       0       0       0
       0       0       0       0       0       0       0       0       0       0
       0       0       0       0       0       0       0       0       0       0
       0       0       0       0       0       0       0       0       0       0
       0       0       0       0       0       0       0       0       0       0
       0       0       0       0       0       0       0       0       0       0
       0       0       0       0       0       0       0       0       0       0
       0       0       0       0       0       0       0       0       0       0
       0       0       0       0       0       0       0       0       0       0
       0       0       0       0       0       0       0       0       0       0
       0       0       0       0       0       0       0       0       0       0
       0       0       0       0       0       0       0       0       0       0
       0       0       0       0       0       0       0       0       0       0
       0       0       0       0       0       0       0       0       0       0
       0       0       0       0       0       0       0       0       0       0
       0       0       0       0       0       0       0       0       0       0
       0       0       0       0       0       0       0       0       0       0
       0       0       0       0       0       0       0       0       0       0
       0       0       0       0       0       0       0       0       0       0
       0       0       0       0       0       0       0       0       0       0
       0       0       0       0       0       0       0       0       0       0
       0       0       0       0       0       0       0       0       0       0
       0       0       0       0       0       0       0       0       0       0
       0       0       0       0       0       0       0       0       0       0
       0       0       0       0       0       0       0       0       0       0
       0       0       0       0       0       0       0       0       0       0
       0       0       0       0       0       0       0       0       0       0
       0       0       0       0       0       0       0       0       0       0
       0       0       0       0       0       0       0       0       0       0
       0       0       0       0       0       0       0       0       0       0
       0       0       0       0       0       0       0       0       0       0
       0       0       0       0       0       0       0       0       0       0
       0       0       0       0       0       0       0       0       0       0
       0       0       0       0       0       0       0       0       0       0
       0       0       0       0       0       0       0       0       0       0
       0       0       0       0       0       0       0       0       0       0
       0       0       0       0       0       0       0       0       0       0
       0       0       0       0       0       0       0       0       0       0
       0       0       0       0       0       0       0       0       0       0
       0       0       0       0       0       0       0       0       0       0
       0       0       0       0       0       0       0       0       0       0
       0       0       0       0       0       0       0       0       0       0
       0       0       0       0       0       0       0       0       0       0
       0       0       0       0       0       0       0       0       0       0
       0       0       0       0       0       0       0       0       0       0
       0       0       0       0       0       0       0       0       0       0
       0       0       0       0       0       0       0       0       0       0
       0       0       0       0       0       0       0       0       0       0
       0       0       0       0       0       0       0       0       0       0
       0       0       0       0       0       0       0       0       0       0
       0       0       0       0       0       0       0       0       0       0
       0       0       0       0       0       0       0       0       0       0
       0       0       0       0       0       0       0       0       0       0
       0       0       0       0       0       0       0       0       0       0
       0       0       0       0       0       0       0       0       0       0
       0       0       0       0       0       0       0       0       0       0
       0       0       0       0       0       0       0       0       0       0
       0       0       0       0       0       0       0       0       0       0
       0       0       0       0       0       0       0       0       0       0
       0       0       0       0       0       0       0       0       0       0
       0       0       0       0       0       0       0       0       0       0
       0       0       0       0       0       0       0       0       0       0
       0       0       0       0       0       0       0       0       0       0
       0       0       0       0       0       0       0       0       0       0
       0       0       0       0       0       0       0       0       0       0
       0       0       0       0       0       0       0       0       0       0
       0       0       0       0       0       0       0       0       0       0
       0       0       0       0       0       0       0       0       0       0
       0       0       0       0       0       0       0       0       0       0
       0       0       0       0       0       0       0       0       0       0
       0       0       0       0       0       0       0       0       0       0
       0       0       0       0       0       0       0       0       0       0
       0       0       0       0       0       0       0       0       0       0
       0       0       0       0       0       0       0       0       0       0
       0       0       0       0       0       0       0       0       0       0
       0       0       0       0       0       0       0       0       0       0
       0       0       0       0       0       0       0       0       0       0
       0       0       0       0       0       0       0       0       0       0
       0       0       0       0       0       0       0       0       0       0
       0       0       0       0       0       0       0       0       0       0
       0       0       0       0       0       0       0       0       0       0
       0       0       0       0       0       0       0       0       0       0
       0       0       0       0       0       0       0       0       0       0
       0       0       0       0       0       0       0       0       0       0
       0       0       0       0       0       0       0       0       0       0
       0       0       0       0       0       0       0       0       0       0
       0       0       0       0       0       0       0       0       0       0
       0       0       0       0       0       0       0       0       0       0
       0       0       0       0       0       0       0       0       0       0
       0       0       0       0       0       0       0       0       0       0
       0       0       0       0       0       0       0       0       0       0
       0       0       0       0       0       0       0       0       0       0
       0       0       0       0       0       0       0       0       0       0
       0       0       0       0       0       0       0       0       0       0
       0       0       0       0       0       0       0       0       0       0
       0       0       0       0       0       0       0       0       0       0
       0       0       0       0       0       0       0       0       0       0
       0       0       0       0       0       0       0       0       0       0
       0       0       0       0       0       0       0       0       0       0
       0       0       0       0       0       0       0       0       0       0
       0       0       0       0       0       0       0       0       0       0
       0       0       0       0       0       0       0       0       0       0
       0       0       0       0       0       0       0       0       0       0
       0       0       0       0       0       0       0       0       0       0
       0       0       0       0       0       0       0       0       0       0
       0       0       0       0       0       0       0       0       0       0
       0       0       0       0       0       0       0       0       0       0
       0       0       0       0       0       0       0       0       0       0
       0       0       0       0       0       0       0       0       0       0
       0       0       0       0       0       0       0       0       0       0
       0       0       0       0       0       0       0       0       0       0
       0       0       0       0       0       0       0       0       0       0
       0       0       0       0       0       0       0       0       0       0
       0       0       0       0       0       0       0       0       0       0
       0       0       0       0       0       0       0       0       0       0
       0       0       0       0       0       0       0       0       0       0
       0       0       0       0       0       0       0       0       0       0
       0       0       0       0       0       0       0       0       0       0
       0       0       0       0       0       0       0       0       0       0
       0       0       0       0       0       0       0       0       0       0
       0       0       0       0       0       0       0       0       0       0
       0       0       0       0       0       0       0       0       0       0
       0       0       0       0       0       0       0       0       0       0
       0       0       0       0       0       0       0       0       0       0
       0       0       0       0       0       0       0       0       0       0
       0       0       0       0       0       0       0       0       0       0
       0       0       0       0       0       0       0       0       0       0
       0       0       0       0       0       0       0       0       0       0
       0       0       0       0       0       0       0       0       0       0
       0       0       0       0       0       0       0       0       0       0
       0       0       0       0       0       0       0       0       0       0
       0       0       0       0       0       0       0       0       0       0
       0       0       0       0       0       0       0       0       0       0
       0       0       0       0       0       0       0       0       0       0
       0       0       0       0       0       0       0       0       0       0
       0       0       0       0       0       0       0       0       0       0
       0       0       0       0       0       0       0       0       0       0
       0       0       0       0       0       0       0       0       0       0
       0       0       0       0       0       0       0       0       0       0
       0       0       0       0       0       0       0       0       0       0
       0       0       0       0       0       0       0       0       0       0
       0       0       0       0       0       0       0       0       0       0
       0       0       0       0       0       0       0       0       0       0
       0       0       0       0       0       0       0       0       0       0
       0       0       0       0       0       0       0       0       0       0
       0       0       0       0       0       0       0       0       0       0
       0       0       0       0       0       0       0       0       0       0
       0       0       0       0       0       0       0       0       0       0
       0       0       0       0       0       0       0       0       0       0
       0       0       0       0       0       0       0       0       0       0
       0       0       0       0       0       0       0       0       0       0
       0       0       0       0       0       0       0       0       0       0
       0       0       0       0       0       0       0       0       0       0
       0       0       0       0       0       0       0       0       0       0
       0       0       0       0       0       0       0       0       0       0
       0       0       0       0       0       0       0       0       0       0
       0       0       0       0       0       0       0       0       0       0
       0       0       0       0       0       0       0       0       0       0
       0       0       0       0       0       0       0       0       0       0
       0       0       0       0       0       0       0       0       0       0
       0       0       0       0       0       0       0       0       0       0
       0       0       0       0       0       0       0       0       0       0
       0       0       0       0       0       0       0       0       0       0
       0       0       0       0       0       0       0       0       0       0
       0       0       0       0       0       0       0       0       0       0
       0       0       0       0       0       0       0       0       0       0
       0       0       0       0       0       0       0       0       0       0
       0       0       0       0       0       0       0       0       0       0
       0       0       0       0       0       0       0       0       0       0
       0       0       0       0       0       0       0       0       0       0
       0       0       0       0       0       0       0       0       0       0
       0       0       0       0       0       0       0       0       0       0
       0       0       0       0       0       0       0       0       0       0
       0       0       0       0       0       0       0       0       0       0
       0       0       0       0       0       0       0       0       0       0
       0       0       0       0       0       0       0       0       0       0
       0       0       0       0       0       0       0       0       0       0
       0       0       0       0       0       0       0       0       0       0
       0       0       0       0       0       0       0       0       0       0
       0       0       0       0       0       0       0       0       0       0
       0       0       0       0       0       0       0       0       0       0
       0       0       0       0       0       0       0       0       0       0
       0       0       0       0       0       0       0       0       0       0
       0       0       0       0       0       0       0       0       0       0
       0       0       0       0       0       0       0       0       0       0
       0       0       0       0       0       0       0       0       0       0
       0       0       0       0       0       0       0       0       0       0
       0       0       0       0       0       0       0       0       0       0
       0       0       0       0       0       0       0       0       0       0
       0       0       0       0       0       0       0       0       0       0
       0       0       0       0       0       0       0       0       0       0
       0       0       0       0       0       0       0       0       0       0
       0       0       0       0       0       0       0       0       0       0
       0       0       0       0       0       0       0       0       0       0
       0       0       0       0       0       0       0       0       0       0
       0       0       0       0       0       0       0       0       0       0
       0       0       0       0       0       0       0       0       0       0
       0       0       0       0       0       0       0       0       0       0
       0       0       0       0       0       0       0       0       0       0
       0       0       0       0       0       0       0       0       0       0
       0       0       0       0       0       0       0       0       0       0
       0       0       0       0       0       0       0       0       0       0
       0       0       0       0       0       0       0       0       0       0
       0       0       0       0       0       0       0       0       0       0
       0       0       0       0       0       0       0       0       0       0
       0       0       0       0       0       0       0       0       0       0
       0       0       0       0       0       0       0       0       0       0
       0       0       0       0       0       0       0       0       0       0
       0       0       0       0       0       0       0       0       0       0
       0       0       0       0       0       0       0       0       0       0
       0       0       0       0       0       0       0       0       0       0
       0       0       0       0       0       0       0       0       0       0
       0       0       0       0       0       0       0       0       0       0
       0       0       0       0       0       0       0       0       0       0
       0       0       0       0       0       0       0       0       0       0
       0       0       0       0       0       0       0       0       0       0
       0       0       0       0       0       0       0       0       0       0
       0       0       0       0       0       0       0       0       0       0
       0       0       0       0       0       0       0       0       0       0
       0       0       0       0       0       0       0       0       0       0
       0       0       0       0       0       0       0       0       0       0
       0       0       0       0       0       0       0       0       0       0
       0       0       0       0       0       0       0       0       0       0
       0       0       0       0       0       0       0       0       0       0
       0       0       0       0       0       0       0       0       0       0
       0       0       0       0       0       0       0       0       0       0
       0       0       0       0       0       0       0       0       0       0
       0       0       0       0       0       0       0       0       0       0
       0       0       0       0       0       0       0       0       0       0
       0       0       0       0       0       0       0       0       0       0
       0       0       0       0       0       0       0       0       0       0
       0       0       0       0       0       0       0       0       0       0
       0       0       0       0       0       0       0       0       0       0
       0       0       0       0       0       0       0       0       0       0
       0       0       0       0       0       0       0       0       0       0
       0       0       0       0       0       0       0       0       0       0
       0       0       0       0       0       0       0       0       0       0
       0       0       0       0       0       0       0       0       0       0
       0       0       0       0       0       0       0       0       0       0
       0       0       0       0       0       0       0       0       0       0
       0       0       0       0       0       0       0       0       0       0
       0       0       0       0       0       0       0       0       0       0
       0       0       0       0       0       0       0       0       0       0
       0       0       0       0       0       0       0       0       0       0
       0       0       0       0       0       0       0       0       0       0
       0       0       0       0       0       0       0       0       0       0
       0       0       0       0       0       0       0       0       0       0
       0       0       0       0       0       0       0       0       0       0
       0       0       0       0       0       0       0       0       0       0
       0       0       0       0       0       0       0       0       0       0
       0       0       0       0       0       0       0       0       0       0
       0       0       0       0       0       0       0       0       0       0
       0       0       0       0       0       0       0       0       0       0
       0       0       0       0       0       0       0       0       0       0
       0       0       0       0       0       0       0       0       0       0
       0       0       0       0       0       0       0       0       0       0
       0       0       0       0       0       0       0       0       0       0
       0       0       0       0       0       0       0       0       0       0
       0       0       0       0       0       0       0       0       0       0
       0       0       0       0       0       0       0       0       0       0
       0       0       0       0       0       0       0       0       0       0
       0       0       0       0       0       0       0       0       0       0
       0       0       0       0       0       0       0       0       0       0
       0       0       0       0       0       0       0       0       0       0
       0       0       0       0       0       0       0       0       0       0
       0       0       0       0       0       0       0       0       0       0
       0       0       0       0       0       0       0       0       0       0
       0       0       0       0       0       0       0       0       0       0
       0       0       0       0       0       0       0       0       0       0
       0       0       0       0       0       0       0       0       0       0
       0       0       0       0       0       0       0       0       0       0
       0       0       0       0       0       0       0       0       0       0
       0       0       0       0       0       0       0       0       0       0
       0       0       0       0       0       0       0       0       0       0
       0       0       0       0       0       0       0       0       0       0
       0       0       0       0       0       0       0       0       0       0
       0       0       0       0       0       0       0       0       0       0
       0       0       0       0       0       0       0       0       0       0
       0       0       0       0       0       0       0       0       0       0
       0       0       0       0       0       0       0       0       0       0
       0       0       0       0       0       0       0       0       0       0
       0       0       0       0       0       0       0       0       0       0
       0       0       0       0       0       0       0       0       0       0
       0       0       0       0       0       0       0       0       0       0
       0       0       0       0       0       0       0       0       0       0
       0       0       0       0       0       0       0       0       0       0
       0       0       0       0       0       0       0       0       0       0
       0       0       0       0       0       0       0       0       0       0
       0       0       0       0       0       0       0       0       0       0
       0       0       0       0       0       0       0       0       0       0
       0       0       0       0       0       0       0       0       0       0
       0       0       0       0       0       0       0       0       0       0
       0       0       0       0       0       0       0       0       0       0
       0       0       0       0       0       0       0       0       0       0
       0       0       0       0       0       0       0       0       0       0
       0       0       0       0       0       0       0       0       0       0
       0       0       0       0       0       0       0       0       0       0
       0       0       0       0       0       0       0       0       0       0
       0       0       0       0       0       0       0       0       0       0
       0       0       0       0       0       0       0       0       0       0
       0       0       0       0       0       0       0       0       0       0
       0       0       0       0       0       0       0       0       0       0
       0       0       0       0       0       0       0       0       0       0
       0       0       0       0       0       0       0       0       0       0
       0       0       0       0       0       0       0       0       0       0
       0       0       0       0       0       0       0       0       0       0
       0       0       0       0       0       0       0       0       0       0
       0       0       0       0       0       0       0       0       0       0
       0       0       0       0       0       0       0       0       0       0
       0       0       0       0       0       0       0       0       0       0
       0       0       0       0       0       0       0       0       0       0
       0       0       0       0       0       0       0       0       0       0
       0       0       0       0       0       0       0       0       0       0
       0       0       0       0       0       0       0       0       0       0
       0       0       0       0       0       0       0       0       0       0
       0       0       0       0       0       0       0       0       0       0
       0       0       0       0       0       0       0       0       0       0
       0       0       0       0       0       0       0       0       0       0
       0       0       0       0       0       0       0       0       0       0
       0       0       0       0       0       0       0       0       0       0
       0       0       0       0       0       0       0       0       0       0
       0       0       0       0       0       0       0       0       0       0
       0       0       0       0       0       0       0       0       0       0
       0       0       0       0       0       0       0       0       0       0
       0       0       0       0       0       0       0       0       0       0
       0       0       0       0       0       0       0       0       0       0
       0       0       0       0       0       0       0       0       0       0
       0       0       0       0       0       0       0       0       0       0
       0       0       0       0       0       0       0       0       0       0
       0       0       0       0       0       0       0       0       0       0
       0       0       0       0       0       0       0       0       0       0
       0       0       0       0       0       0       0       0       0       0
       0       0       0       0       0       0       0       0       0       0
       0       0       0       0       0       0       0       0       0       0
       0       0       0       0       0       0       0       0       0       0
       0       0       0       0       0       0       0       0       0       0
       0       0       0       0       0       0       0       0       0       0
       0       0       0       0       0       0       0       0       0       0
       0       0       0       0       0       0       0       0       0       0
       0       0       0       0       0       0       0       0       0       0
       0       0       0       0       0       0       0       0       0       0
       0       0       0       0       0       0       0       0       0       0
       0       0       0       0       0       0       0       0       0       0
       0       0       0       0       0       0       0       0       0       0
       0       0       0       0       0       0       0       0       0       0
       0       0       0       0       0       0       0       0       0       0
       0       0       0       0       0       0       0       0       0       0
       0       0       0       0       0       0       0       0       0       0
       0       0       0       0       0       0       0       0       0       0
       0       0       0       0       0       0       0       0       0       0
       0       0       0       0       0       0       0       0       0       0
       0       0       0       0       0       0       0       0       0       0
       0       0       0       0       0       0       0       0       0       0
       0       0       0       0       0       0       0       0       0       0
       0       0       0       0       0       0       0       0       0       0
       0       0       0       0       0       0       0       0       0       0
       0       0       0       0       0       0       0       0       0       0
       0       0       0       0       0       0       0       0       0       0
       0       0       0       0       0       0       0       0       0       0
       0       0       0       0       0       0       0       0       0       0
       0       0       0       0       0       0       0       0       0       0
       0       0       0       0       0       0       0       0       0       0
       0       0       0       0       0       0       0       0       0       0
       0       0       0       0       0       0       0       0       0       0
       0       0       0       0       0       0       0       0       0       0
       0       0       0       0       0       0       0       0       0       0
       0       0       0       0       0       0       0       0       0       0
       0       0       0       0       0       0       0       0       0       0
       0       0       0       0       0       0       0       0       0       0
       0       0       0       0       0       0       0       0       0       0
       0       0       0       0       0       0       0       0       0       0
       0       0       0       0       0       0       0       0       0       0
       0       0       0       0       0       0       0       0       0       0
       0       0       0       0       0       0       0       0       0       0
       0       0       0       0       0       0       0       0       0       0
       0       0       0       0       0       0       0       0       0       0
       0       0       0       0       0       0       0       0       0       0
       0       0       0       0       0       0       0       0       0       0
       0       0       0       0       0       0       0       0       0       0
       0       0       0       0       0       0       0       0       0       0
       0       0       0       0       0       0       0       0       0       0
       0       0       0       0       0       0       0       0       0       0
       0       0       0       0       0       0       0       0       0       0
       0       0       0       0       0       0       0       0       0       0
       0       0       0       0       0       0       0       0       0       0
       0       0       0       0       0       0       0       0       0       0
       0       0       0       0       0       0       0       0       0       0
       0       0       0       0       0       0       0       0       0       0
       0       0       0       0       0       0       0       0       0       0
       0       0       0       0       0       0       0       0       0       0
       0       0       0       0       0       0       0       0       0       0
       0       0       0       0       0       0       0       0       0       0
       0       0       0       0       0       0       0       0       0       0
       0       0       0       0       0       0       0       0       0       0
       0       0       0       0       0       0       0       0       0       0
       0       0       0       0       0       0       0       0       0       0
       0       0       0       0       0       0       0       0       0       0
       0       0       0       0       0       0       0       0       0       0
       0       0       0       0       0       0       0       0       0       0
       0       0       0       0       0       0       0       0       0       0
       0       0       0       0       0       0       0       0       0       0
       0       0       0       0       0       0       0       0       0       0
       0       0       0       0       0       0       0       0       0       0
       0       0       0       0       0       0       0       0       0       0
       0       0       0       0       0       0       0       0       0       0
       0       0       0       0       0       0       0       0       0       0
       0       0       0       0       0       0       0       0       0       0
       0       0       0       0       0       0       0       0       0       0
       0       0       0       0       0       0       0       0       0       0
       0       0       0       0       0       0       0       0       0       0
       0       0       0       0       0       0       0       0       0       0
       0       0       0       0       0       0       0       0       0       0
       0       0       0       0       0       0       0       0       0       0
       0       0       0       0       0       0       0       0       0       0
       0       0       0       0       0       0       0       0       0       0
       0       0       0       0       0       0       0       0       0       0
       0       0       0       0       0       0       0       0       0       0
       0       0       0       0       0       0       0       0       0       0
       0       0       0       0       0       0       0       0       0       0
       0       0       0       0       0       0       0       0       0       0
       0       0       0       0       0       0       0       0
%FLAG BOX_DIMENSIONS
%FORMAT(5E16.8)
  9.00000000E+01  4.52731090E+01  4.37573710E+01  4.23050150E+01
%FLAG RADIUS_SET                                                                
%FORMAT(1a80)                                                                   
H(N)-modified Bondi radii (mbondi2)                                             
%FLAG RADII                                                                     
%FORMAT(5E16.8)                                                                 
  1.55000000E+00  1.30000000E+00  1.30000000E+00  1.30000000E+00  1.70000000E+00
  1.20000000E+00  1.20000000E+00  1.70000000E+00  1.50000000E+00  1.55000000E+00
  1.30000000E+00  1.70000000E+00  1.20000000E+00  1.70000000E+00  1.20000000E+00
  1.20000000E+00  1.70000000E+00  1.70000000E+00  1.20000000E+00  1.70000000E+00
  1.20000000E+00  1.70000000E+00  1.50000000E+00  1.20000000E+00  1.70000000E+00
  1.20000000E+00  1.70000000E+00  1.20000000E+00  1.70000000E+00  1.50000000E+00
  1.55000000E+00  1.30000000E+00  1.70000000E+00  1.20000000E+00  1.70000000E+00
  1.20000000E+00  1.20000000E+00  1.70000000E+00  1.50000000E+00  1.50000000E+00
  1.70000000E+00  1.50000000E+00  1.55000000E+00  1.70000000E+00  1.20000000E+00
  1.20000000E+00  1.70000000E+00  1.20000000E+00  1.20000000E+00  1.70000000E+00
  1.20000000E+00  1.20000000E+00  1.70000000E+00  1.20000000E+00  1.70000000E+00
  1.50000000E+00  1.55000000E+00  1.30000000E+00  1.70000000E+00  1.20000000E+00
  1.70000000E+00  1.20000000E+00  1.20000000E+00  1.70000000E+00  1.20000000E+00
  1.20000000E+00  1.70000000E+00  1.50000000E+00  1.50000000E+00  1.70000000E+00
  1.50000000E+00  1.55000000E+00  1.30000000E+00  1.70000000E+00  1.20000000E+00
  1.70000000E+00  1.20000000E+00  1.70000000E+00  1.20000000E+00  1.20000000E+00
  1.20000000E+00  1.50000000E+00  1.20000000E+00  1.70000000E+00  1.50000000E+00
  1.55000000E+00  1.30000000E+00  1.70000000E+00  1.20000000E+00  1.20000000E+00
  1.70000000E+00  1.50000000E+00  1.55000000E+00  1.30000000E+00  1.70000000E+00
  1.20000000E+00  1.70000000E+00  1.20000000E+00  1.70000000E+00  1.20000000E+00
  1.20000000E+00  1.20000000E+00  1.50000000E+00  1.20000000E+00  1.70000000E+00
  1.50000000E+00  1.55000000E+00  1.30000000E+00  1.70000000E+00  1.20000000E+00
  1.70000000E+00  1.20000000E+00  1.20000000E+00  1.70000000E+00  1.70000000E+00
  1.20000000E+00  1.55000000E+00  1.30000000E+00  1.70000000E+00  1.70000000E+00
  1.20000000E+00  1.70000000E+00  1.20000000E+00  1.70000000E+00  1.20000000E+00
  1.70000000E+00  1.20000000E+00  1.70000000E+00  1.70000000E+00  1.50000000E+00
  1.55000000E+00  1.30000000E+00  1.70000000E+00  1.20000000E+00  1.20000000E+00
  1.70000000E+00  1.50000000E+00  1.50000000E+00  1.50000000E+00  1.50000000E+00
  1.50000000E+00  1.20000000E+00  1.20000000E+00  1.50000000E+00  1.20000000E+00
  1.20000000E+00  1.50000000E+00  1.20000000E+00  1.20000000E+00  1.50000000E+00
  1.20000000E+00  1.20000000E+00  1.50000000E+00  1.20000000E+00  1.20000000E+00
  1.50000000E+00  1.20000000E+00  1.20000000E+00  1.50000000E+00  1.20000000E+00
  1.20000000E+00  1.50000000E+00  1.20000000E+00  1.20000000E+00  1.50000000E+00
  1.20000000E+00  1.20000000E+00  1.50000000E+00  1.20000000E+00  1.20000000E+00
  1.50000000E+00  1.20000000E+00  1.20000000E+00  1.50000000E+00  1.20000000E+00
  1.20000000E+00  1.50000000E+00  1.20000000E+00  1.20000000E+00  1.50000000E+00
  1.20000000E+00  1.20000000E+00  1.50000000E+00  1.20000000E+00  1.20000000E+00
  1.50000000E+00  1.20000000E+00  1.20000000E+00  1.50000000E+00  1.20000000E+00
  1.20000000E+00  1.50000000E+00  1.20000000E+00  1.20000000E+00  1.50000000E+00
  1.20000000E+00  1.20000000E+00  1.50000000E+00  1.20000000E+00  1.20000000E+00
  1.50000000E+00  1.20000000E+00  1.20000000E+00  1.50000000E+00  1.20000000E+00
  1.20000000E+00  1.50000000E+00  1.20000000E+00  1.20000000E+00  1.50000000E+00
  1.20000000E+00  1.20000000E+00  1.50000000E+00  1.20000000E+00  1.20000000E+00
  1.50000000E+00  1.20000000E+00  1.20000000E+00  1.50000000E+00  1.20000000E+00
  1.20000000E+00  1.50000000E+00  1.20000000E+00  1.20000000E+00  1.50000000E+00
  1.20000000E+00  1.20000000E+00  1.50000000E+00  1.20000000E+00  1.20000000E+00
  1.50000000E+00  1.20000000E+00  1.20000000E+00  1.50000000E+00  1.20000000E+00
  1.20000000E+00  1.50000000E+00  1.20000000E+00  1.20000000E+00  1.50000000E+00
  1.20000000E+00  1.20000000E+00  1.50000000E+00  1.20000000E+00  1.20000000E+00
  1.50000000E+00  1.20000000E+00  1.20000000E+00  1.50000000E+00  1.20000000E+00
  1.20000000E+00  1.50000000E+00  1.20000000E+00  1.20000000E+00  1.50000000E+00
  1.20000000E+00  1.20000000E+00  1.50000000E+00  1.20000000E+00  1.20000000E+00
  1.50000000E+00  1.20000000E+00  1.20000000E+00  1.50000000E+00  1.20000000E+00
  1.20000000E+00  1.50000000E+00  1.20000000E+00  1.20000000E+00  1.50000000E+00
  1.20000000E+00  1.20000000E+00  1.50000000E+00  1.20000000E+00  1.20000000E+00
  1.50000000E+00  1.20000000E+00  1.20000000E+00  1.50000000E+00  1.20000000E+00
  1.20000000E+00  1.50000000E+00  1.20000000E+00  1.20000000E+00  1.50000000E+00
  1.20000000E+00  1.20000000E+00  1.50000000E+00  1.20000000E+00  1.20000000E+00
  1.50000000E+00  1.20000000E+00  1.20000000E+00  1.50000000E+00  1.20000000E+00
  1.20000000E+00  1.50000000E+00  1.20000000E+00  1.20000000E+00  1.50000000E+00
  1.20000000E+00  1.20000000E+00  1.50000000E+00  1.20000000E+00  1.20000000E+00
  1.50000000E+00  1.20000000E+00  1.20000000E+00  1.50000000E+00  1.20000000E+00
  1.20000000E+00  1.50000000E+00  1.20000000E+00  1.20000000E+00  1.50000000E+00
  1.20000000E+00  1.20000000E+00  1.50000000E+00  1.20000000E+00  1.20000000E+00
  1.50000000E+00  1.20000000E+00  1.20000000E+00  1.50000000E+00  1.20000000E+00
  1.20000000E+00  1.50000000E+00  1.20000000E+00  1.20000000E+00  1.50000000E+00
  1.20000000E+00  1.20000000E+00  1.50000000E+00  1.20000000E+00  1.20000000E+00
  1.50000000E+00  1.20000000E+00  1.20000000E+00  1.50000000E+00  1.20000000E+00
  1.20000000E+00  1.50000000E+00  1.20000000E+00  1.20000000E+00  1.50000000E+00
  1.20000000E+00  1.20000000E+00  1.50000000E+00  1.20000000E+00  1.20000000E+00
  1.50000000E+00  1.20000000E+00  1.20000000E+00  1.50000000E+00  1.20000000E+00
  1.20000000E+00  1.50000000E+00  1.20000000E+00  1.20000000E+00  1.50000000E+00
  1.20000000E+00  1.20000000E+00  1.50000000E+00  1.20000000E+00  1.20000000E+00
  1.50000000E+00  1.20000000E+00  1.20000000E+00  1.50000000E+00  1.20000000E+00
  1.20000000E+00  1.50000000E+00  1.20000000E+00  1.20000000E+00  1.50000000E+00
  1.20000000E+00  1.20000000E+00  1.50000000E+00  1.20000000E+00  1.20000000E+00
  1.50000000E+00  1.20000000E+00  1.20000000E+00  1.50000000E+00  1.20000000E+00
  1.20000000E+00  1.50000000E+00  1.20000000E+00  1.20000000E+00  1.50000000E+00
  1.20000000E+00  1.20000000E+00  1.50000000E+00  1.20000000E+00  1.20000000E+00
  1.50000000E+00  1.20000000E+00  1.20000000E+00  1.50000000E+00  1.20000000E+00
  1.20000000E+00  1.50000000E+00  1.20000000E+00  1.20000000E+00  1.50000000E+00
  1.20000000E+00  1.20000000E+00  1.50000000E+00  1.20000000E+00  1.20000000E+00
  1.50000000E+00  1.20000000E+00  1.20000000E+00  1.50000000E+00  1.20000000E+00
  1.20000000E+00  1.50000000E+00  1.20000000E+00  1.20000000E+00  1.50000000E+00
  1.20000000E+00  1.20000000E+00  1.50000000E+00  1.20000000E+00  1.20000000E+00
  1.50000000E+00  1.20000000E+00  1.20000000E+00  1.50000000E+00  1.20000000E+00
  1.20000000E+00  1.50000000E+00  1.20000000E+00  1.20000000E+00  1.50000000E+00
  1.20000000E+00  1.20000000E+00  1.50000000E+00  1.20000000E+00  1.20000000E+00
  1.50000000E+00  1.20000000E+00  1.20000000E+00  1.50000000E+00  1.20000000E+00
  1.20000000E+00  1.50000000E+00  1.20000000E+00  1.20000000E+00  1.50000000E+00
  1.20000000E+00  1.20000000E+00  1.50000000E+00  1.20000000E+00  1.20000000E+00
  1.50000000E+00  1.20000000E+00  1.20000000E+00  1.50000000E+00  1.20000000E+00
  1.20000000E+00  1.50000000E+00  1.20000000E+00  1.20000000E+00  1.50000000E+00
  1.20000000E+00  1.20000000E+00  1.50000000E+00  1.20000000E+00  1.20000000E+00
  1.50000000E+00  1.20000000E+00  1.20000000E+00  1.50000000E+00  1.20000000E+00
  1.20000000E+00  1.50000000E+00  1.20000000E+00  1.20000000E+00  1.50000000E+00
  1.20000000E+00  1.20000000E+00  1.50000000E+00  1.20000000E+00  1.20000000E+00
  1.50000000E+00  1.20000000E+00  1.20000000E+00  1.50000000E+00  1.20000000E+00
  1.20000000E+00  1.50000000E+00  1.20000000E+00  1.20000000E+00  1.50000000E+00
  1.20000000E+00  1.20000000E+00  1.50000000E+00  1.20000000E+00  1.20000000E+00
  1.50000000E+00  1.20000000E+00  1.20000000E+00  1.50000000E+00  1.20000000E+00
  1.20000000E+00  1.50000000E+00  1.20000000E+00  1.20000000E+00  1.50000000E+00
  1.20000000E+00  1.20000000E+00  1.50000000E+00  1.20000000E+00  1.20000000E+00
  1.50000000E+00  1.20000000E+00  1.20000000E+00  1.50000000E+00  1.20000000E+00
  1.20000000E+00  1.50000000E+00  1.20000000E+00  1.20000000E+00  1.50000000E+00
  1.20000000E+00  1.20000000E+00  1.50000000E+00  1.20000000E+00  1.20000000E+00
  1.50000000E+00  1.20000000E+00  1.20000000E+00  1.50000000E+00  1.20000000E+00
  1.20000000E+00  1.50000000E+00  1.20000000E+00  1.20000000E+00  1.50000000E+00
  1.20000000E+00  1.20000000E+00  1.50000000E+00  1.20000000E+00  1.20000000E+00
  1.50000000E+00  1.20000000E+00  1.20000000E+00  1.50000000E+00  1.20000000E+00
  1.20000000E+00  1.50000000E+00  1.20000000E+00  1.20000000E+00  1.50000000E+00
  1.20000000E+00  1.20000000E+00  1.50000000E+00  1.20000000E+00  1.20000000E+00
  1.50000000E+00  1.20000000E+00  1.20000000E+00  1.50000000E+00  1.20000000E+00
  1.20000000E+00  1.50000000E+00  1.20000000E+00  1.20000000E+00  1.50000000E+00
  1.20000000E+00  1.20000000E+00  1.50000000E+00  1.20000000E+00  1.20000000E+00
  1.50000000E+00  1.20000000E+00  1.20000000E+00  1.50000000E+00  1.20000000E+00
  1.20000000E+00  1.50000000E+00  1.20000000E+00  1.20000000E+00  1.50000000E+00
  1.20000000E+00  1.20000000E+00  1.50000000E+00  1.20000000E+00  1.20000000E+00
  1.50000000E+00  1.20000000E+00  1.20000000E+00  1.50000000E+00  1.20000000E+00
  1.20000000E+00  1.50000000E+00  1.20000000E+00  1.20000000E+00  1.50000000E+00
  1.20000000E+00  1.20000000E+00  1.50000000E+00  1.20000000E+00  1.20000000E+00
  1.50000000E+00  1.20000000E+00  1.20000000E+00  1.50000000E+00  1.20000000E+00
  1.20000000E+00  1.50000000E+00  1.20000000E+00  1.20000000E+00  1.50000000E+00
  1.20000000E+00  1.20000000E+00  1.50000000E+00  1.20000000E+00  1.20000000E+00
  1.50000000E+00  1.20000000E+00  1.20000000E+00  1.50000000E+00  1.20000000E+00
  1.20000000E+00  1.50000000E+00  1.20000000E+00  1.20000000E+00  1.50000000E+00
  1.20000000E+00  1.20000000E+00  1.50000000E+00  1.20000000E+00  1.20000000E+00
  1.50000000E+00  1.20000000E+00  1.20000000E+00  1.50000000E+00  1.20000000E+00
  1.20000000E+00  1.50000000E+00  1.20000000E+00  1.20000000E+00  1.50000000E+00
  1.20000000E+00  1.20000000E+00  1.50000000E+00  1.20000000E+00  1.20000000E+00
  1.50000000E+00  1.20000000E+00  1.20000000E+00  1.50000000E+00  1.20000000E+00
  1.20000000E+00  1.50000000E+00  1.20000000E+00  1.20000000E+00  1.50000000E+00
  1.20000000E+00  1.20000000E+00  1.50000000E+00  1.20000000E+00  1.20000000E+00
  1.50000000E+00  1.20000000E+00  1.20000000E+00  1.50000000E+00  1.20000000E+00
  1.20000000E+00  1.50000000E+00  1.20000000E+00  1.20000000E+00  1.50000000E+00
  1.20000000E+00  1.20000000E+00  1.50000000E+00  1.20000000E+00  1.20000000E+00
  1.50000000E+00  1.20000000E+00  1.20000000E+00  1.50000000E+00  1.20000000E+00
  1.20000000E+00  1.50000000E+00  1.20000000E+00  1.20000000E+00  1.50000000E+00
  1.20000000E+00  1.20000000E+00  1.50000000E+00  1.20000000E+00  1.20000000E+00
  1.50000000E+00  1.20000000E+00  1.20000000E+00  1.50000000E+00  1.20000000E+00
  1.20000000E+00  1.50000000E+00  1.20000000E+00  1.20000000E+00  1.50000000E+00
  1.20000000E+00  1.20000000E+00  1.50000000E+00  1.20000000E+00  1.20000000E+00
  1.50000000E+00  1.20000000E+00  1.20000000E+00  1.50000000E+00  1.20000000E+00
  1.20000000E+00  1.50000000E+00  1.20000000E+00  1.20000000E+00  1.50000000E+00
  1.20000000E+00  1.20000000E+00  1.50000000E+00  1.20000000E+00  1.20000000E+00
  1.50000000E+00  1.20000000E+00  1.20000000E+00  1.50000000E+00  1.20000000E+00
  1.20000000E+00  1.50000000E+00  1.20000000E+00  1.20000000E+00  1.50000000E+00
  1.20000000E+00  1.20000000E+00  1.50000000E+00  1.20000000E+00  1.20000000E+00
  1.50000000E+00  1.20000000E+00  1.20000000E+00  1.50000000E+00  1.20000000E+00
  1.20000000E+00  1.50000000E+00  1.20000000E+00  1.20000000E+00  1.50000000E+00
  1.20000000E+00  1.20000000E+00  1.50000000E+00  1.20000000E+00  1.20000000E+00
  1.50000000E+00  1.20000000E+00  1.20000000E+00  1.50000000E+00  1.20000000E+00
  1.20000000E+00  1.50000000E+00  1.20000000E+00  1.20000000E+00  1.50000000E+00
  1.20000000E+00  1.20000000E+00  1.50000000E+00  1.20000000E+00  1.20000000E+00
  1.50000000E+00  1.20000000E+00  1.20000000E+00  1.50000000E+00  1.20000000E+00
  1.20000000E+00  1.50000000E+00  1.20000000E+00  1.20000000E+00  1.50000000E+00
  1.20000000E+00  1.20000000E+00  1.50000000E+00  1.20000000E+00  1.20000000E+00
  1.50000000E+00  1.20000000E+00  1.20000000E+00  1.50000000E+00  1.20000000E+00
  1.20000000E+00  1.50000000E+00  1.20000000E+00  1.20000000E+00  1.50000000E+00
  1.20000000E+00  1.20000000E+00  1.50000000E+00  1.20000000E+00  1.20000000E+00
  1.50000000E+00  1.20000000E+00  1.20000000E+00  1.50000000E+00  1.20000000E+00
  1.20000000E+00  1.50000000E+00  1.20000000E+00  1.20000000E+00  1.50000000E+00
  1.20000000E+00  1.20000000E+00  1.50000000E+00  1.20000000E+00  1.20000000E+00
  1.50000000E+00  1.20000000E+00  1.20000000E+00  1.50000000E+00  1.20000000E+00
  1.20000000E+00  1.50000000E+00  1.20000000E+00  1.20000000E+00  1.50000000E+00
  1.20000000E+00  1.20000000E+00  1.50000000E+00  1.20000000E+00  1.20000000E+00
  1.50000000E+00  1.20000000E+00  1.20000000E+00  1.50000000E+00  1.20000000E+00
  1.20000000E+00  1.50000000E+00  1.20000000E+00  1.20000000E+00  1.50000000E+00
  1.20000000E+00  1.20000000E+00  1.50000000E+00  1.20000000E+00  1.20000000E+00
  1.50000000E+00  1.20000000E+00  1.20000000E+00  1.50000000E+00  1.20000000E+00
  1.20000000E+00  1.50000000E+00  1.20000000E+00  1.20000000E+00  1.50000000E+00
  1.20000000E+00  1.20000000E+00  1.50000000E+00  1.20000000E+00  1.20000000E+00
  1.50000000E+00  1.20000000E+00  1.20000000E+00  1.50000000E+00  1.20000000E+00
  1.20000000E+00  1.50000000E+00  1.20000000E+00  1.20000000E+00  1.50000000E+00
  1.20000000E+00  1.20000000E+00  1.50000000E+00  1.20000000E+00  1.20000000E+00
  1.50000000E+00  1.20000000E+00  1.20000000E+00  1.50000000E+00  1.20000000E+00
  1.20000000E+00  1.50000000E+00  1.20000000E+00  1.20000000E+00  1.50000000E+00
  1.20000000E+00  1.20000000E+00  1.50000000E+00  1.20000000E+00  1.20000000E+00
  1.50000000E+00  1.20000000E+00  1.20000000E+00  1.50000000E+00  1.20000000E+00
  1.20000000E+00  1.50000000E+00  1.20000000E+00  1.20000000E+00  1.50000000E+00
  1.20000000E+00  1.20000000E+00  1.50000000E+00  1.20000000E+00  1.20000000E+00
  1.50000000E+00  1.20000000E+00  1.20000000E+00  1.50000000E+00  1.20000000E+00
  1.20000000E+00  1.50000000E+00  1.20000000E+00  1.20000000E+00  1.50000000E+00
  1.20000000E+00  1.20000000E+00  1.50000000E+00  1.20000000E+00  1.20000000E+00
  1.50000000E+00  1.20000000E+00  1.20000000E+00  1.50000000E+00  1.20000000E+00
  1.20000000E+00  1.50000000E+00  1.20000000E+00  1.20000000E+00  1.50000000E+00
  1.20000000E+00  1.20000000E+00  1.50000000E+00  1.20000000E+00  1.20000000E+00
  1.50000000E+00  1.20000000E+00  1.20000000E+00  1.50000000E+00  1.20000000E+00
  1.20000000E+00  1.50000000E+00  1.20000000E+00  1.20000000E+00  1.50000000E+00
  1.20000000E+00  1.20000000E+00  1.50000000E+00  1.20000000E+00  1.20000000E+00
  1.50000000E+00  1.20000000E+00  1.20000000E+00  1.50000000E+00  1.20000000E+00
  1.20000000E+00  1.50000000E+00  1.20000000E+00  1.20000000E+00  1.50000000E+00
  1.20000000E+00  1.20000000E+00  1.50000000E+00  1.20000000E+00  1.20000000E+00
  1.50000000E+00  1.20000000E+00  1.20000000E+00  1.50000000E+00  1.20000000E+00
  1.20000000E+00  1.50000000E+00  1.20000000E+00  1.20000000E+00  1.50000000E+00
  1.20000000E+00  1.20000000E+00  1.50000000E+00  1.20000000E+00  1.20000000E+00
  1.50000000E+00  1.20000000E+00  1.20000000E+00  1.50000000E+00  1.20000000E+00
  1.20000000E+00  1.50000000E+00  1.20000000E+00  1.20000000E+00  1.50000000E+00
  1.20000000E+00  1.20000000E+00  1.50000000E+00  1.20000000E+00  1.20000000E+00
  1.50000000E+00  1.20000000E+00  1.20000000E+00  1.50000000E+00  1.20000000E+00
  1.20000000E+00  1.50000000E+00  1.20000000E+00  1.20000000E+00  1.50000000E+00
  1.20000000E+00  1.20000000E+00  1.50000000E+00  1.20000000E+00  1.20000000E+00
  1.50000000E+00  1.20000000E+00  1.20000000E+00  1.50000000E+00  1.20000000E+00
  1.20000000E+00  1.50000000E+00  1.20000000E+00  1.20000000E+00  1.50000000E+00
  1.20000000E+00  1.20000000E+00  1.50000000E+00  1.20000000E+00  1.20000000E+00
  1.50000000E+00  1.20000000E+00  1.20000000E+00  1.50000000E+00  1.20000000E+00
  1.20000000E+00  1.50000000E+00  1.20000000E+00  1.20000000E+00  1.50000000E+00
  1.20000000E+00  1.20000000E+00  1.50000000E+00  1.20000000E+00  1.20000000E+00
  1.50000000E+00  1.20000000E+00  1.20000000E+00  1.50000000E+00  1.20000000E+00
  1.20000000E+00  1.50000000E+00  1.20000000E+00  1.20000000E+00  1.50000000E+00
  1.20000000E+00  1.20000000E+00  1.50000000E+00  1.20000000E+00  1.20000000E+00
  1.50000000E+00  1.20000000E+00  1.20000000E+00  1.50000000E+00  1.20000000E+00
  1.20000000E+00  1.50000000E+00  1.20000000E+00  1.20000000E+00  1.50000000E+00
  1.20000000E+00  1.20000000E+00  1.50000000E+00  1.20000000E+00  1.20000000E+00
  1.50000000E+00  1.20000000E+00  1.20000000E+00  1.50000000E+00  1.20000000E+00
  1.20000000E+00  1.50000000E+00  1.20000000E+00  1.20000000E+00  1.50000000E+00
  1.20000000E+00  1.20000000E+00  1.50000000E+00  1.20000000E+00  1.20000000E+00
  1.50000000E+00  1.20000000E+00  1.20000000E+00  1.50000000E+00  1.20000000E+00
  1.20000000E+00  1.50000000E+00  1.20000000E+00  1.20000000E+00  1.50000000E+00
  1.20000000E+00  1.20000000E+00  1.50000000E+00  1.20000000E+00  1.20000000E+00
  1.50000000E+00  1.20000000E+00  1.20000000E+00  1.50000000E+00  1.20000000E+00
  1.20000000E+00  1.50000000E+00  1.20000000E+00  1.20000000E+00  1.50000000E+00
  1.20000000E+00  1.20000000E+00  1.50000000E+00  1.20000000E+00  1.20000000E+00
  1.50000000E+00  1.20000000E+00  1.20000000E+00  1.50000000E+00  1.20000000E+00
  1.20000000E+00  1.50000000E+00  1.20000000E+00  1.20000000E+00  1.50000000E+00
  1.20000000E+00  1.20000000E+00  1.50000000E+00  1.20000000E+00  1.20000000E+00
  1.50000000E+00  1.20000000E+00  1.20000000E+00  1.50000000E+00  1.20000000E+00
  1.20000000E+00  1.50000000E+00  1.20000000E+00  1.20000000E+00  1.50000000E+00
  1.20000000E+00  1.20000000E+00  1.50000000E+00  1.20000000E+00  1.20000000E+00
  1.50000000E+00  1.20000000E+00  1.20000000E+00  1.50000000E+00  1.20000000E+00
  1.20000000E+00  1.50000000E+00  1.20000000E+00  1.20000000E+00  1.50000000E+00
  1.20000000E+00  1.20000000E+00  1.50000000E+00  1.20000000E+00  1.20000000E+00
  1.50000000E+00  1.20000000E+00  1.20000000E+00  1.50000000E+00  1.20000000E+00
  1.20000000E+00  1.50000000E+00  1.20000000E+00  1.20000000E+00  1.50000000E+00
  1.20000000E+00  1.20000000E+00  1.50000000E+00  1.20000000E+00  1.20000000E+00
  1.50000000E+00  1.20000000E+00  1.20000000E+00  1.50000000E+00  1.20000000E+00
  1.20000000E+00  1.50000000E+00  1.20000000E+00  1.20000000E+00  1.50000000E+00
  1.20000000E+00  1.20000000E+00  1.50000000E+00  1.20000000E+00  1.20000000E+00
  1.50000000E+00  1.20000000E+00  1.20000000E+00  1.50000000E+00  1.20000000E+00
  1.20000000E+00  1.50000000E+00  1.20000000E+00  1.20000000E+00  1.50000000E+00
  1.20000000E+00  1.20000000E+00  1.50000000E+00  1.20000000E+00  1.20000000E+00
  1.50000000E+00  1.20000000E+00  1.20000000E+00  1.50000000E+00  1.20000000E+00
  1.20000000E+00  1.50000000E+00  1.20000000E+00  1.20000000E+00  1.50000000E+00
  1.20000000E+00  1.20000000E+00  1.50000000E+00  1.20000000E+00  1.20000000E+00
  1.50000000E+00  1.20000000E+00  1.20000000E+00  1.50000000E+00  1.20000000E+00
  1.20000000E+00  1.50000000E+00  1.20000000E+00  1.20000000E+00  1.50000000E+00
  1.20000000E+00  1.20000000E+00  1.50000000E+00  1.20000000E+00  1.20000000E+00
  1.50000000E+00  1.20000000E+00  1.20000000E+00  1.50000000E+00  1.20000000E+00
  1.20000000E+00  1.50000000E+00  1.20000000E+00  1.20000000E+00  1.50000000E+00
  1.20000000E+00  1.20000000E+00  1.50000000E+00  1.20000000E+00  1.20000000E+00
  1.50000000E+00  1.20000000E+00  1.20000000E+00  1.50000000E+00  1.20000000E+00
  1.20000000E+00  1.50000000E+00  1.20000000E+00  1.20000000E+00  1.50000000E+00
  1.20000000E+00  1.20000000E+00  1.50000000E+00  1.20000000E+00  1.20000000E+00
  1.50000000E+00  1.20000000E+00  1.20000000E+00  1.50000000E+00  1.20000000E+00
  1.20000000E+00  1.50000000E+00  1.20000000E+00  1.20000000E+00  1.50000000E+00
  1.20000000E+00  1.20000000E+00  1.50000000E+00  1.20000000E+00  1.20000000E+00
  1.50000000E+00  1.20000000E+00  1.20000000E+00  1.50000000E+00  1.20000000E+00
  1.20000000E+00  1.50000000E+00  1.20000000E+00  1.20000000E+00  1.50000000E+00
  1.20000000E+00  1.20000000E+00  1.50000000E+00  1.20000000E+00  1.20000000E+00
  1.50000000E+00  1.20000000E+00  1.20000000E+00  1.50000000E+00  1.20000000E+00
  1.20000000E+00  1.50000000E+00  1.20000000E+00  1.20000000E+00  1.50000000E+00
  1.20000000E+00  1.20000000E+00  1.50000000E+00  1.20000000E+00  1.20000000E+00
  1.50000000E+00  1.20000000E+00  1.20000000E+00  1.50000000E+00  1.20000000E+00
  1.20000000E+00  1.50000000E+00  1.20000000E+00  1.20000000E+00  1.50000000E+00
  1.20000000E+00  1.20000000E+00  1.50000000E+00  1.20000000E+00  1.20000000E+00
  1.50000000E+00  1.20000000E+00  1.20000000E+00  1.50000000E+00  1.20000000E+00
  1.20000000E+00  1.50000000E+00  1.20000000E+00  1.20000000E+00  1.50000000E+00
  1.20000000E+00  1.20000000E+00  1.50000000E+00  1.20000000E+00  1.20000000E+00
  1.50000000E+00  1.20000000E+00  1.20000000E+00  1.50000000E+00  1.20000000E+00
  1.20000000E+00  1.50000000E+00  1.20000000E+00  1.20000000E+00  1.50000000E+00
  1.20000000E+00  1.20000000E+00  1.50000000E+00  1.20000000E+00  1.20000000E+00
  1.50000000E+00  1.20000000E+00  1.20000000E+00  1.50000000E+00  1.20000000E+00
  1.20000000E+00  1.50000000E+00  1.20000000E+00  1.20000000E+00  1.50000000E+00
  1.20000000E+00  1.20000000E+00  1.50000000E+00  1.20000000E+00  1.20000000E+00
  1.50000000E+00  1.20000000E+00  1.20000000E+00  1.50000000E+00  1.20000000E+00
  1.20000000E+00  1.50000000E+00  1.20000000E+00  1.20000000E+00  1.50000000E+00
  1.20000000E+00  1.20000000E+00  1.50000000E+00  1.20000000E+00  1.20000000E+00
  1.50000000E+00  1.20000000E+00  1.20000000E+00  1.50000000E+00  1.20000000E+00
  1.20000000E+00  1.50000000E+00  1.20000000E+00  1.20000000E+00  1.50000000E+00
  1.20000000E+00  1.20000000E+00  1.50000000E+00  1.20000000E+00  1.20000000E+00
  1.50000000E+00  1.20000000E+00  1.20000000E+00  1.50000000E+00  1.20000000E+00
  1.20000000E+00  1.50000000E+00  1.20000000E+00  1.20000000E+00  1.50000000E+00
  1.20000000E+00  1.20000000E+00  1.50000000E+00  1.20000000E+00  1.20000000E+00
  1.50000000E+00  1.20000000E+00  1.20000000E+00  1.50000000E+00  1.20000000E+00
  1.20000000E+00  1.50000000E+00  1.20000000E+00  1.20000000E+00  1.50000000E+00
  1.20000000E+00  1.20000000E+00  1.50000000E+00  1.20000000E+00  1.20000000E+00
  1.50000000E+00  1.20000000E+00  1.20000000E+00  1.50000000E+00  1.20000000E+00
  1.20000000E+00  1.50000000E+00  1.20000000E+00  1.20000000E+00  1.50000000E+00
  1.20000000E+00  1.20000000E+00  1.50000000E+00  1.20000000E+00  1.20000000E+00
  1.50000000E+00  1.20000000E+00  1.20000000E+00  1.50000000E+00  1.20000000E+00
  1.20000000E+00  1.50000000E+00  1.20000000E+00  1.20000000E+00  1.50000000E+00
  1.20000000E+00  1.20000000E+00  1.50000000E+00  1.20000000E+00  1.20000000E+00
  1.50000000E+00  1.20000000E+00  1.20000000E+00  1.50000000E+00  1.20000000E+00
  1.20000000E+00  1.50000000E+00  1.20000000E+00  1.20000000E+00  1.50000000E+00
  1.20000000E+00  1.20000000E+00  1.50000000E+00  1.20000000E+00  1.20000000E+00
  1.50000000E+00  1.20000000E+00  1.20000000E+00  1.50000000E+00  1.20000000E+00
  1.20000000E+00  1.50000000E+00  1.20000000E+00  1.20000000E+00  1.50000000E+00
  1.20000000E+00  1.20000000E+00  1.50000000E+00  1.20000000E+00  1.20000000E+00
  1.50000000E+00  1.20000000E+00  1.20000000E+00  1.50000000E+00  1.20000000E+00
  1.20000000E+00  1.50000000E+00  1.20000000E+00  1.20000000E+00  1.50000000E+00
  1.20000000E+00  1.20000000E+00  1.50000000E+00  1.20000000E+00  1.20000000E+00
  1.50000000E+00  1.20000000E+00  1.20000000E+00  1.50000000E+00  1.20000000E+00
  1.20000000E+00  1.50000000E+00  1.20000000E+00  1.20000000E+00  1.50000000E+00
  1.20000000E+00  1.20000000E+00  1.50000000E+00  1.20000000E+00  1.20000000E+00
  1.50000000E+00  1.20000000E+00  1.20000000E+00  1.50000000E+00  1.20000000E+00
  1.20000000E+00  1.50000000E+00  1.20000000E+00  1.20000000E+00  1.50000000E+00
  1.20000000E+00  1.20000000E+00  1.50000000E+00  1.20000000E+00  1.20000000E+00
  1.50000000E+00  1.20000000E+00  1.20000000E+00  1.50000000E+00  1.20000000E+00
  1.20000000E+00  1.50000000E+00  1.20000000E+00  1.20000000E+00  1.50000000E+00
  1.20000000E+00  1.20000000E+00  1.50000000E+00  1.20000000E+00  1.20000000E+00
  1.50000000E+00  1.20000000E+00  1.20000000E+00  1.50000000E+00  1.20000000E+00
  1.20000000E+00  1.50000000E+00  1.20000000E+00  1.20000000E+00  1.50000000E+00
  1.20000000E+00  1.20000000E+00  1.50000000E+00  1.20000000E+00  1.20000000E+00
  1.50000000E+00  1.20000000E+00  1.20000000E+00  1.50000000E+00  1.20000000E+00
  1.20000000E+00  1.50000000E+00  1.20000000E+00  1.20000000E+00  1.50000000E+00
  1.20000000E+00  1.20000000E+00  1.50000000E+00  1.20000000E+00  1.20000000E+00
  1.50000000E+00  1.20000000E+00  1.20000000E+00  1.50000000E+00  1.20000000E+00
  1.20000000E+00  1.50000000E+00  1.20000000E+00  1.20000000E+00  1.50000000E+00
  1.20000000E+00  1.20000000E+00  1.50000000E+00  1.20000000E+00  1.20000000E+00
  1.50000000E+00  1.20000000E+00  1.20000000E+00  1.50000000E+00  1.20000000E+00
  1.20000000E+00  1.50000000E+00  1.20000000E+00  1.20000000E+00  1.50000000E+00
  1.20000000E+00  1.20000000E+00  1.50000000E+00  1.20000000E+00  1.20000000E+00
  1.50000000E+00  1.20000000E+00  1.20000000E+00  1.50000000E+00  1.20000000E+00
  1.20000000E+00  1.50000000E+00  1.20000000E+00  1.20000000E+00  1.50000000E+00
  1.20000000E+00  1.20000000E+00  1.50000000E+00  1.20000000E+00  1.20000000E+00
  1.50000000E+00  1.20000000E+00  1.20000000E+00  1.50000000E+00  1.20000000E+00
  1.20000000E+00  1.50000000E+00  1.20000000E+00  1.20000000E+00  1.50000000E+00
  1.20000000E+00  1.20000000E+00  1.50000000E+00  1.20000000E+00  1.20000000E+00
  1.50000000E+00  1.20000000E+00  1.20000000E+00  1.50000000E+00  1.20000000E+00
  1.20000000E+00  1.50000000E+00  1.20000000E+00  1.20000000E+00  1.50000000E+00
  1.20000000E+00  1.20000000E+00  1.50000000E+00  1.20000000E+00  1.20000000E+00
  1.50000000E+00  1.20000000E+00  1.20000000E+00  1.50000000E+00  1.20000000E+00
  1.20000000E+00  1.50000000E+00  1.20000000E+00  1.20000000E+00  1.50000000E+00
  1.20000000E+00  1.20000000E+00  1.50000000E+00  1.20000000E+00  1.20000000E+00
  1.50000000E+00  1.20000000E+00  1.20000000E+00  1.50000000E+00  1.20000000E+00
  1.20000000E+00  1.50000000E+00  1.20000000E+00  1.20000000E+00  1.50000000E+00
  1.20000000E+00  1.20000000E+00  1.50000000E+00  1.20000000E+00  1.20000000E+00
  1.50000000E+00  1.20000000E+00  1.20000000E+00  1.50000000E+00  1.20000000E+00
  1.20000000E+00  1.50000000E+00  1.20000000E+00  1.20000000E+00  1.50000000E+00
  1.20000000E+00  1.20000000E+00  1.50000000E+00  1.20000000E+00  1.20000000E+00
  1.50000000E+00  1.20000000E+00  1.20000000E+00  1.50000000E+00  1.20000000E+00
  1.20000000E+00  1.50000000E+00  1.20000000E+00  1.20000000E+00  1.50000000E+00
  1.20000000E+00  1.20000000E+00  1.50000000E+00  1.20000000E+00  1.20000000E+00
  1.50000000E+00  1.20000000E+00  1.20000000E+00  1.50000000E+00  1.20000000E+00
  1.20000000E+00  1.50000000E+00  1.20000000E+00  1.20000000E+00  1.50000000E+00
  1.20000000E+00  1.20000000E+00  1.50000000E+00  1.20000000E+00  1.20000000E+00
  1.50000000E+00  1.20000000E+00  1.20000000E+00  1.50000000E+00  1.20000000E+00
  1.20000000E+00  1.50000000E+00  1.20000000E+00  1.20000000E+00  1.50000000E+00
  1.20000000E+00  1.20000000E+00  1.50000000E+00  1.20000000E+00  1.20000000E+00
  1.50000000E+00  1.20000000E+00  1.20000000E+00  1.50000000E+00  1.20000000E+00
  1.20000000E+00  1.50000000E+00  1.20000000E+00  1.20000000E+00  1.50000000E+00
  1.20000000E+00  1.20000000E+00  1.50000000E+00  1.20000000E+00  1.20000000E+00
  1.50000000E+00  1.20000000E+00  1.20000000E+00  1.50000000E+00  1.20000000E+00
  1.20000000E+00  1.50000000E+00  1.20000000E+00  1.20000000E+00  1.50000000E+00
  1.20000000E+00  1.20000000E+00  1.50000000E+00  1.20000000E+00  1.20000000E+00
  1.50000000E+00  1.20000000E+00  1.20000000E+00  1.50000000E+00  1.20000000E+00
  1.20000000E+00  1.50000000E+00  1.20000000E+00  1.20000000E+00  1.50000000E+00
  1.20000000E+00  1.20000000E+00  1.50000000E+00  1.20000000E+00  1.20000000E+00
  1.50000000E+00  1.20000000E+00  1.20000000E+00  1.50000000E+00  1.20000000E+00
  1.20000000E+00  1.50000000E+00  1.20000000E+00  1.20000000E+00  1.50000000E+00
  1.20000000E+00  1.20000000E+00  1.50000000E+00  1.20000000E+00  1.20000000E+00
  1.50000000E+00  1.20000000E+00  1.20000000E+00  1.50000000E+00  1.20000000E+00
  1.20000000E+00  1.50000000E+00  1.20000000E+00  1.20000000E+00  1.50000000E+00
  1.20000000E+00  1.20000000E+00  1.50000000E+00  1.20000000E+00  1.20000000E+00
  1.50000000E+00  1.20000000E+00  1.20000000E+00  1.50000000E+00  1.20000000E+00
  1.20000000E+00  1.50000000E+00  1.20000000E+00  1.20000000E+00  1.50000000E+00
  1.20000000E+00  1.20000000E+00  1.50000000E+00  1.20000000E+00  1.20000000E+00
  1.50000000E+00  1.20000000E+00  1.20000000E+00  1.50000000E+00  1.20000000E+00
  1.20000000E+00  1.50000000E+00  1.20000000E+00  1.20000000E+00  1.50000000E+00
  1.20000000E+00  1.20000000E+00  1.50000000E+00  1.20000000E+00  1.20000000E+00
  1.50000000E+00  1.20000000E+00  1.20000000E+00  1.50000000E+00  1.20000000E+00
  1.20000000E+00  1.50000000E+00  1.20000000E+00  1.20000000E+00  1.50000000E+00
  1.20000000E+00  1.20000000E+00  1.50000000E+00  1.20000000E+00  1.20000000E+00
  1.50000000E+00  1.20000000E+00  1.20000000E+00  1.50000000E+00  1.20000000E+00
  1.20000000E+00  1.50000000E+00  1.20000000E+00  1.20000000E+00  1.50000000E+00
  1.20000000E+00  1.20000000E+00  1.50000000E+00  1.20000000E+00  1.20000000E+00
  1.50000000E+00  1.20000000E+00  1.20000000E+00  1.50000000E+00  1.20000000E+00
  1.20000000E+00  1.50000000E+00  1.20000000E+00  1.20000000E+00  1.50000000E+00
  1.20000000E+00  1.20000000E+00  1.50000000E+00  1.20000000E+00  1.20000000E+00
  1.50000000E+00  1.20000000E+00  1.20000000E+00  1.50000000E+00  1.20000000E+00
  1.20000000E+00  1.50000000E+00  1.20000000E+00  1.20000000E+00  1.50000000E+00
  1.20000000E+00  1.20000000E+00  1.50000000E+00  1.20000000E+00  1.20000000E+00
  1.50000000E+00  1.20000000E+00  1.20000000E+00  1.50000000E+00  1.20000000E+00
  1.20000000E+00  1.50000000E+00  1.20000000E+00  1.20000000E+00  1.50000000E+00
  1.20000000E+00  1.20000000E+00  1.50000000E+00  1.20000000E+00  1.20000000E+00
  1.50000000E+00  1.20000000E+00  1.20000000E+00  1.50000000E+00  1.20000000E+00
  1.20000000E+00  1.50000000E+00  1.20000000E+00  1.20000000E+00  1.50000000E+00
  1.20000000E+00  1.20000000E+00  1.50000000E+00  1.20000000E+00  1.20000000E+00
  1.50000000E+00  1.20000000E+00  1.20000000E+00  1.50000000E+00  1.20000000E+00
  1.20000000E+00  1.50000000E+00  1.20000000E+00  1.20000000E+00  1.50000000E+00
  1.20000000E+00  1.20000000E+00  1.50000000E+00  1.20000000E+00  1.20000000E+00
  1.50000000E+00  1.20000000E+00  1.20000000E+00  1.50000000E+00  1.20000000E+00
  1.20000000E+00  1.50000000E+00  1.20000000E+00  1.20000000E+00  1.50000000E+00
  1.20000000E+00  1.20000000E+00  1.50000000E+00  1.20000000E+00  1.20000000E+00
  1.50000000E+00  1.20000000E+00  1.20000000E+00  1.50000000E+00  1.20000000E+00
  1.20000000E+00  1.50000000E+00  1.20000000E+00  1.20000000E+00  1.50000000E+00
  1.20000000E+00  1.20000000E+00  1.50000000E+00  1.20000000E+00  1.20000000E+00
  1.50000000E+00  1.20000000E+00  1.20000000E+00  1.50000000E+00  1.20000000E+00
  1.20000000E+00  1.50000000E+00  1.20000000E+00  1.20000000E+00  1.50000000E+00
  1.20000000E+00  1.20000000E+00  1.50000000E+00  1.20000000E+00  1.20000000E+00
  1.50000000E+00  1.20000000E+00  1.20000000E+00  1.50000000E+00  1.20000000E+00
  1.20000000E+00  1.50000000E+00  1.20000000E+00  1.20000000E+00  1.50000000E+00
  1.20000000E+00  1.20000000E+00  1.50000000E+00  1.20000000E+00  1.20000000E+00
  1.50000000E+00  1.20000000E+00  1.20000000E+00  1.50000000E+00  1.20000000E+00
  1.20000000E+00  1.50000000E+00  1.20000000E+00  1.20000000E+00  1.50000000E+00
  1.20000000E+00  1.20000000E+00  1.50000000E+00  1.20000000E+00  1.20000000E+00
  1.50000000E+00  1.20000000E+00  1.20000000E+00  1.50000000E+00  1.20000000E+00
  1.20000000E+00  1.50000000E+00  1.20000000E+00  1.20000000E+00  1.50000000E+00
  1.20000000E+00  1.20000000E+00  1.50000000E+00  1.20000000E+00  1.20000000E+00
  1.50000000E+00  1.20000000E+00  1.20000000E+00  1.50000000E+00  1.20000000E+00
  1.20000000E+00  1.50000000E+00  1.20000000E+00  1.20000000E+00  1.50000000E+00
  1.20000000E+00  1.20000000E+00  1.50000000E+00  1.20000000E+00  1.20000000E+00
  1.50000000E+00  1.20000000E+00  1.20000000E+00  1.50000000E+00  1.20000000E+00
  1.20000000E+00  1.50000000E+00  1.20000000E+00  1.20000000E+00  1.50000000E+00
  1.20000000E+00  1.20000000E+00  1.50000000E+00  1.20000000E+00  1.20000000E+00
  1.50000000E+00  1.20000000E+00  1.20000000E+00  1.50000000E+00  1.20000000E+00
  1.20000000E+00  1.50000000E+00  1.20000000E+00  1.20000000E+00  1.50000000E+00
  1.20000000E+00  1.20000000E+00  1.50000000E+00  1.20000000E+00  1.20000000E+00
  1.50000000E+00  1.20000000E+00  1.20000000E+00  1.50000000E+00  1.20000000E+00
  1.20000000E+00  1.50000000E+00  1.20000000E+00  1.20000000E+00  1.50000000E+00
  1.20000000E+00  1.20000000E+00  1.50000000E+00  1.20000000E+00  1.20000000E+00
  1.50000000E+00  1.20000000E+00  1.20000000E+00  1.50000000E+00  1.20000000E+00
  1.20000000E+00  1.50000000E+00  1.20000000E+00  1.20000000E+00  1.50000000E+00
  1.20000000E+00  1.20000000E+00  1.50000000E+00  1.20000000E+00  1.20000000E+00
  1.50000000E+00  1.20000000E+00  1.20000000E+00  1.50000000E+00  1.20000000E+00
  1.20000000E+00  1.50000000E+00  1.20000000E+00  1.20000000E+00  1.50000000E+00
  1.20000000E+00  1.20000000E+00  1.50000000E+00  1.20000000E+00  1.20000000E+00
  1.50000000E+00  1.20000000E+00  1.20000000E+00  1.50000000E+00  1.20000000E+00
  1.20000000E+00  1.50000000E+00  1.20000000E+00  1.20000000E+00  1.50000000E+00
  1.20000000E+00  1.20000000E+00  1.50000000E+00  1.20000000E+00  1.20000000E+00
  1.50000000E+00  1.20000000E+00  1.20000000E+00  1.50000000E+00  1.20000000E+00
  1.20000000E+00  1.50000000E+00  1.20000000E+00  1.20000000E+00  1.50000000E+00
  1.20000000E+00  1.20000000E+00  1.50000000E+00  1.20000000E+00  1.20000000E+00
  1.50000000E+00  1.20000000E+00  1.20000000E+00  1.50000000E+00  1.20000000E+00
  1.20000000E+00  1.50000000E+00  1.20000000E+00  1.20000000E+00  1.50000000E+00
  1.20000000E+00  1.20000000E+00  1.50000000E+00  1.20000000E+00  1.20000000E+00
  1.50000000E+00  1.20000000E+00  1.20000000E+00  1.50000000E+00  1.20000000E+00
  1.20000000E+00  1.50000000E+00  1.20000000E+00  1.20000000E+00  1.50000000E+00
  1.20000000E+00  1.20000000E+00  1.50000000E+00  1.20000000E+00  1.20000000E+00
  1.50000000E+00  1.20000000E+00  1.20000000E+00  1.50000000E+00  1.20000000E+00
  1.20000000E+00  1.50000000E+00  1.20000000E+00  1.20000000E+00  1.50000000E+00
  1.20000000E+00  1.20000000E+00  1.50000000E+00  1.20000000E+00  1.20000000E+00
  1.50000000E+00  1.20000000E+00  1.20000000E+00  1.50000000E+00  1.20000000E+00
  1.20000000E+00  1.50000000E+00  1.20000000E+00  1.20000000E+00  1.50000000E+00
  1.20000000E+00  1.20000000E+00  1.50000000E+00  1.20000000E+00  1.20000000E+00
  1.50000000E+00  1.20000000E+00  1.20000000E+00  1.50000000E+00  1.20000000E+00
  1.20000000E+00  1.50000000E+00  1.20000000E+00  1.20000000E+00  1.50000000E+00
  1.20000000E+00  1.20000000E+00  1.50000000E+00  1.20000000E+00  1.20000000E+00
  1.50000000E+00  1.20000000E+00  1.20000000E+00  1.50000000E+00  1.20000000E+00
  1.20000000E+00  1.50000000E+00  1.20000000E+00  1.20000000E+00  1.50000000E+00
  1.20000000E+00  1.20000000E+00  1.50000000E+00  1.20000000E+00  1.20000000E+00
  1.50000000E+00  1.20000000E+00  1.20000000E+00  1.50000000E+00  1.20000000E+00
  1.20000000E+00  1.50000000E+00  1.20000000E+00  1.20000000E+00  1.50000000E+00
  1.20000000E+00  1.20000000E+00  1.50000000E+00  1.20000000E+00  1.20000000E+00
  1.50000000E+00  1.20000000E+00  1.20000000E+00  1.50000000E+00  1.20000000E+00
  1.20000000E+00  1.50000000E+00  1.20000000E+00  1.20000000E+00  1.50000000E+00
  1.20000000E+00  1.20000000E+00  1.50000000E+00  1.20000000E+00  1.20000000E+00
  1.50000000E+00  1.20000000E+00  1.20000000E+00  1.50000000E+00  1.20000000E+00
  1.20000000E+00  1.50000000E+00  1.20000000E+00  1.20000000E+00  1.50000000E+00
  1.20000000E+00  1.20000000E+00  1.50000000E+00  1.20000000E+00  1.20000000E+00
  1.50000000E+00  1.20000000E+00  1.20000000E+00  1.50000000E+00  1.20000000E+00
  1.20000000E+00  1.50000000E+00  1.20000000E+00  1.20000000E+00  1.50000000E+00
  1.20000000E+00  1.20000000E+00  1.50000000E+00  1.20000000E+00  1.20000000E+00
  1.50000000E+00  1.20000000E+00  1.20000000E+00  1.50000000E+00  1.20000000E+00
  1.20000000E+00  1.50000000E+00  1.20000000E+00  1.20000000E+00  1.50000000E+00
  1.20000000E+00  1.20000000E+00  1.50000000E+00  1.20000000E+00  1.20000000E+00
  1.50000000E+00  1.20000000E+00  1.20000000E+00  1.50000000E+00  1.20000000E+00
  1.20000000E+00  1.50000000E+00  1.20000000E+00  1.20000000E+00  1.50000000E+00
  1.20000000E+00  1.20000000E+00  1.50000000E+00  1.20000000E+00  1.20000000E+00
  1.50000000E+00  1.20000000E+00  1.20000000E+00  1.50000000E+00  1.20000000E+00
  1.20000000E+00  1.50000000E+00  1.20000000E+00  1.20000000E+00  1.50000000E+00
  1.20000000E+00  1.20000000E+00  1.50000000E+00  1.20000000E+00  1.20000000E+00
  1.50000000E+00  1.20000000E+00  1.20000000E+00  1.50000000E+00  1.20000000E+00
  1.20000000E+00  1.50000000E+00  1.20000000E+00  1.20000000E+00  1.50000000E+00
  1.20000000E+00  1.20000000E+00  1.50000000E+00  1.20000000E+00  1.20000000E+00
  1.50000000E+00  1.20000000E+00  1.20000000E+00  1.50000000E+00  1.20000000E+00
  1.20000000E+00  1.50000000E+00  1.20000000E+00  1.20000000E+00  1.50000000E+00
  1.20000000E+00  1.20000000E+00  1.50000000E+00  1.20000000E+00  1.20000000E+00
  1.50000000E+00  1.20000000E+00  1.20000000E+00  1.50000000E+00  1.20000000E+00
  1.20000000E+00  1.50000000E+00  1.20000000E+00  1.20000000E+00  1.50000000E+00
  1.20000000E+00  1.20000000E+00  1.50000000E+00  1.20000000E+00  1.20000000E+00
  1.50000000E+00  1.20000000E+00  1.20000000E+00  1.50000000E+00  1.20000000E+00
  1.20000000E+00  1.50000000E+00  1.20000000E+00  1.20000000E+00  1.50000000E+00
  1.20000000E+00  1.20000000E+00  1.50000000E+00  1.20000000E+00  1.20000000E+00
  1.50000000E+00  1.20000000E+00  1.20000000E+00  1.50000000E+00  1.20000000E+00
  1.20000000E+00  1.50000000E+00  1.20000000E+00  1.20000000E+00  1.50000000E+00
  1.20000000E+00  1.20000000E+00  1.50000000E+00  1.20000000E+00  1.20000000E+00
  1.50000000E+00  1.20000000E+00  1.20000000E+00  1.50000000E+00  1.20000000E+00
  1.20000000E+00  1.50000000E+00  1.20000000E+00  1.20000000E+00  1.50000000E+00
  1.20000000E+00  1.20000000E+00  1.50000000E+00  1.20000000E+00  1.20000000E+00
  1.50000000E+00  1.20000000E+00  1.20000000E+00  1.50000000E+00  1.20000000E+00
  1.20000000E+00  1.50000000E+00  1.20000000E+00  1.20000000E+00  1.50000000E+00
  1.20000000E+00  1.20000000E+00  1.50000000E+00  1.20000000E+00  1.20000000E+00
  1.50000000E+00  1.20000000E+00  1.20000000E+00  1.50000000E+00  1.20000000E+00
  1.20000000E+00  1.50000000E+00  1.20000000E+00  1.20000000E+00  1.50000000E+00
  1.20000000E+00  1.20000000E+00  1.50000000E+00  1.20000000E+00  1.20000000E+00
  1.50000000E+00  1.20000000E+00  1.20000000E+00  1.50000000E+00  1.20000000E+00
  1.20000000E+00  1.50000000E+00  1.20000000E+00  1.20000000E+00  1.50000000E+00
  1.20000000E+00  1.20000000E+00  1.50000000E+00  1.20000000E+00  1.20000000E+00
  1.50000000E+00  1.20000000E+00  1.20000000E+00  1.50000000E+00  1.20000000E+00
  1.20000000E+00  1.50000000E+00  1.20000000E+00  1.20000000E+00  1.50000000E+00
  1.20000000E+00  1.20000000E+00  1.50000000E+00  1.20000000E+00  1.20000000E+00
  1.50000000E+00  1.20000000E+00  1.20000000E+00  1.50000000E+00  1.20000000E+00
  1.20000000E+00  1.50000000E+00  1.20000000E+00  1.20000000E+00  1.50000000E+00
  1.20000000E+00  1.20000000E+00  1.50000000E+00  1.20000000E+00  1.20000000E+00
  1.50000000E+00  1.20000000E+00  1.20000000E+00  1.50000000E+00  1.20000000E+00
  1.20000000E+00  1.50000000E+00  1.20000000E+00  1.20000000E+00  1.50000000E+00
  1.20000000E+00  1.20000000E+00  1.50000000E+00  1.20000000E+00  1.20000000E+00
  1.50000000E+00  1.20000000E+00  1.20000000E+00  1.50000000E+00  1.20000000E+00
  1.20000000E+00  1.50000000E+00  1.20000000E+00  1.20000000E+00  1.50000000E+00
  1.20000000E+00  1.20000000E+00  1.50000000E+00  1.20000000E+00  1.20000000E+00
  1.50000000E+00  1.20000000E+00  1.20000000E+00  1.50000000E+00  1.20000000E+00
  1.20000000E+00  1.50000000E+00  1.20000000E+00  1.20000000E+00  1.50000000E+00
  1.20000000E+00  1.20000000E+00  1.50000000E+00  1.20000000E+00  1.20000000E+00
  1.50000000E+00  1.20000000E+00  1.20000000E+00  1.50000000E+00  1.20000000E+00
  1.20000000E+00  1.50000000E+00  1.20000000E+00  1.20000000E+00  1.50000000E+00
  1.20000000E+00  1.20000000E+00  1.50000000E+00  1.20000000E+00  1.20000000E+00
  1.50000000E+00  1.20000000E+00  1.20000000E+00  1.50000000E+00  1.20000000E+00
  1.20000000E+00  1.50000000E+00  1.20000000E+00  1.20000000E+00  1.50000000E+00
  1.20000000E+00  1.20000000E+00  1.50000000E+00  1.20000000E+00  1.20000000E+00
  1.50000000E+00  1.20000000E+00  1.20000000E+00  1.50000000E+00  1.20000000E+00
  1.20000000E+00  1.50000000E+00  1.20000000E+00  1.20000000E+00  1.50000000E+00
  1.20000000E+00  1.20000000E+00  1.50000000E+00  1.20000000E+00  1.20000000E+00
  1.50000000E+00  1.20000000E+00  1.20000000E+00  1.50000000E+00  1.20000000E+00
  1.20000000E+00  1.50000000E+00  1.20000000E+00  1.20000000E+00  1.50000000E+00
  1.20000000E+00  1.20000000E+00  1.50000000E+00  1.20000000E+00  1.20000000E+00
  1.50000000E+00  1.20000000E+00  1.20000000E+00  1.50000000E+00  1.20000000E+00
  1.20000000E+00  1.50000000E+00  1.20000000E+00  1.20000000E+00  1.50000000E+00
  1.20000000E+00  1.20000000E+00  1.50000000E+00  1.20000000E+00  1.20000000E+00
  1.50000000E+00  1.20000000E+00  1.20000000E+00  1.50000000E+00  1.20000000E+00
  1.20000000E+00  1.50000000E+00  1.20000000E+00  1.20000000E+00  1.50000000E+00
  1.20000000E+00  1.20000000E+00  1.50000000E+00  1.20000000E+00  1.20000000E+00
  1.50000000E+00  1.20000000E+00  1.20000000E+00  1.50000000E+00  1.20000000E+00
  1.20000000E+00  1.50000000E+00  1.20000000E+00  1.20000000E+00  1.50000000E+00
  1.20000000E+00  1.20000000E+00  1.50000000E+00  1.20000000E+00  1.20000000E+00
  1.50000000E+00  1.20000000E+00  1.20000000E+00  1.50000000E+00  1.20000000E+00
  1.20000000E+00  1.50000000E+00  1.20000000E+00  1.20000000E+00  1.50000000E+00
  1.20000000E+00  1.20000000E+00  1.50000000E+00  1.20000000E+00  1.20000000E+00
  1.50000000E+00  1.20000000E+00  1.20000000E+00  1.50000000E+00  1.20000000E+00
  1.20000000E+00  1.50000000E+00  1.20000000E+00  1.20000000E+00  1.50000000E+00
  1.20000000E+00  1.20000000E+00  1.50000000E+00  1.20000000E+00  1.20000000E+00
  1.50000000E+00  1.20000000E+00  1.20000000E+00  1.50000000E+00  1.20000000E+00
  1.20000000E+00  1.50000000E+00  1.20000000E+00  1.20000000E+00  1.50000000E+00
  1.20000000E+00  1.20000000E+00  1.50000000E+00  1.20000000E+00  1.20000000E+00
  1.50000000E+00  1.20000000E+00  1.20000000E+00  1.50000000E+00  1.20000000E+00
  1.20000000E+00  1.50000000E+00  1.20000000E+00  1.20000000E+00  1.50000000E+00
  1.20000000E+00  1.20000000E+00  1.50000000E+00  1.20000000E+00  1.20000000E+00
  1.50000000E+00  1.20000000E+00  1.20000000E+00  1.50000000E+00  1.20000000E+00
  1.20000000E+00  1.50000000E+00  1.20000000E+00  1.20000000E+00  1.50000000E+00
  1.20000000E+00  1.20000000E+00  1.50000000E+00  1.20000000E+00  1.20000000E+00
  1.50000000E+00  1.20000000E+00  1.20000000E+00  1.50000000E+00  1.20000000E+00
  1.20000000E+00  1.50000000E+00  1.20000000E+00  1.20000000E+00  1.50000000E+00
  1.20000000E+00  1.20000000E+00  1.50000000E+00  1.20000000E+00  1.20000000E+00
  1.50000000E+00  1.20000000E+00  1.20000000E+00  1.50000000E+00  1.20000000E+00
  1.20000000E+00  1.50000000E+00  1.20000000E+00  1.20000000E+00  1.50000000E+00
  1.20000000E+00  1.20000000E+00  1.50000000E+00  1.20000000E+00  1.20000000E+00
  1.50000000E+00  1.20000000E+00  1.20000000E+00  1.50000000E+00  1.20000000E+00
  1.20000000E+00  1.50000000E+00  1.20000000E+00  1.20000000E+00  1.50000000E+00
  1.20000000E+00  1.20000000E+00  1.50000000E+00  1.20000000E+00  1.20000000E+00
  1.50000000E+00  1.20000000E+00  1.20000000E+00  1.50000000E+00  1.20000000E+00
  1.20000000E+00  1.50000000E+00  1.20000000E+00  1.20000000E+00  1.50000000E+00
  1.20000000E+00  1.20000000E+00  1.50000000E+00  1.20000000E+00  1.20000000E+00
  1.50000000E+00  1.20000000E+00  1.20000000E+00  1.50000000E+00  1.20000000E+00
  1.20000000E+00  1.50000000E+00  1.20000000E+00  1.20000000E+00  1.50000000E+00
  1.20000000E+00  1.20000000E+00  1.50000000E+00  1.20000000E+00  1.20000000E+00
  1.50000000E+00  1.20000000E+00  1.20000000E+00  1.50000000E+00  1.20000000E+00
  1.20000000E+00  1.50000000E+00  1.20000000E+00  1.20000000E+00  1.50000000E+00
  1.20000000E+00  1.20000000E+00  1.50000000E+00  1.20000000E+00  1.20000000E+00
  1.50000000E+00  1.20000000E+00  1.20000000E+00  1.50000000E+00  1.20000000E+00
  1.20000000E+00  1.50000000E+00  1.20000000E+00  1.20000000E+00  1.50000000E+00
  1.20000000E+00  1.20000000E+00  1.50000000E+00  1.20000000E+00  1.20000000E+00
  1.50000000E+00  1.20000000E+00  1.20000000E+00  1.50000000E+00  1.20000000E+00
  1.20000000E+00  1.50000000E+00  1.20000000E+00  1.20000000E+00  1.50000000E+00
  1.20000000E+00  1.20000000E+00  1.50000000E+00  1.20000000E+00  1.20000000E+00
  1.50000000E+00  1.20000000E+00  1.20000000E+00  1.50000000E+00  1.20000000E+00
  1.20000000E+00  1.50000000E+00  1.20000000E+00  1.20000000E+00  1.50000000E+00
  1.20000000E+00  1.20000000E+00  1.50000000E+00  1.20000000E+00  1.20000000E+00
  1.50000000E+00  1.20000000E+00  1.20000000E+00  1.50000000E+00  1.20000000E+00
  1.20000000E+00  1.50000000E+00  1.20000000E+00  1.20000000E+00  1.50000000E+00
  1.20000000E+00  1.20000000E+00  1.50000000E+00  1.20000000E+00  1.20000000E+00
  1.50000000E+00  1.20000000E+00  1.20000000E+00  1.50000000E+00  1.20000000E+00
  1.20000000E+00  1.50000000E+00  1.20000000E+00  1.20000000E+00  1.50000000E+00
  1.20000000E+00  1.20000000E+00  1.50000000E+00  1.20000000E+00  1.20000000E+00
  1.50000000E+00  1.20000000E+00  1.20000000E+00  1.50000000E+00  1.20000000E+00
  1.20000000E+00  1.50000000E+00  1.20000000E+00  1.20000000E+00  1.50000000E+00
  1.20000000E+00  1.20000000E+00  1.50000000E+00  1.20000000E+00  1.20000000E+00
  1.50000000E+00  1.20000000E+00  1.20000000E+00  1.50000000E+00  1.20000000E+00
  1.20000000E+00  1.50000000E+00  1.20000000E+00  1.20000000E+00  1.50000000E+00
  1.20000000E+00  1.20000000E+00  1.50000000E+00  1.20000000E+00  1.20000000E+00
  1.50000000E+00  1.20000000E+00  1.20000000E+00  1.50000000E+00  1.20000000E+00
  1.20000000E+00  1.50000000E+00  1.20000000E+00  1.20000000E+00  1.50000000E+00
  1.20000000E+00  1.20000000E+00  1.50000000E+00  1.20000000E+00  1.20000000E+00
  1.50000000E+00  1.20000000E+00  1.20000000E+00  1.50000000E+00  1.20000000E+00
  1.20000000E+00  1.50000000E+00  1.20000000E+00  1.20000000E+00  1.50000000E+00
  1.20000000E+00  1.20000000E+00  1.50000000E+00  1.20000000E+00  1.20000000E+00
  1.50000000E+00  1.20000000E+00  1.20000000E+00  1.50000000E+00  1.20000000E+00
  1.20000000E+00  1.50000000E+00  1.20000000E+00  1.20000000E+00  1.50000000E+00
  1.20000000E+00  1.20000000E+00  1.50000000E+00  1.20000000E+00  1.20000000E+00
  1.50000000E+00  1.20000000E+00  1.20000000E+00  1.50000000E+00  1.20000000E+00
  1.20000000E+00  1.50000000E+00  1.20000000E+00  1.20000000E+00  1.50000000E+00
  1.20000000E+00  1.20000000E+00  1.50000000E+00  1.20000000E+00  1.20000000E+00
  1.50000000E+00  1.20000000E+00  1.20000000E+00  1.50000000E+00  1.20000000E+00
  1.20000000E+00  1.50000000E+00  1.20000000E+00  1.20000000E+00  1.50000000E+00
  1.20000000E+00  1.20000000E+00  1.50000000E+00  1.20000000E+00  1.20000000E+00
  1.50000000E+00  1.20000000E+00  1.20000000E+00  1.50000000E+00  1.20000000E+00
  1.20000000E+00  1.50000000E+00  1.20000000E+00  1.20000000E+00  1.50000000E+00
  1.20000000E+00  1.20000000E+00  1.50000000E+00  1.20000000E+00  1.20000000E+00
  1.50000000E+00  1.20000000E+00  1.20000000E+00  1.50000000E+00  1.20000000E+00
  1.20000000E+00  1.50000000E+00  1.20000000E+00  1.20000000E+00  1.50000000E+00
  1.20000000E+00  1.20000000E+00  1.50000000E+00  1.20000000E+00  1.20000000E+00
  1.50000000E+00  1.20000000E+00  1.20000000E+00  1.50000000E+00  1.20000000E+00
  1.20000000E+00  1.50000000E+00  1.20000000E+00  1.20000000E+00  1.50000000E+00
  1.20000000E+00  1.20000000E+00  1.50000000E+00  1.20000000E+00  1.20000000E+00
  1.50000000E+00  1.20000000E+00  1.20000000E+00  1.50000000E+00  1.20000000E+00
  1.20000000E+00  1.50000000E+00  1.20000000E+00  1.20000000E+00  1.50000000E+00
  1.20000000E+00  1.20000000E+00  1.50000000E+00  1.20000000E+00  1.20000000E+00
  1.50000000E+00  1.20000000E+00  1.20000000E+00  1.50000000E+00  1.20000000E+00
  1.20000000E+00  1.50000000E+00  1.20000000E+00  1.20000000E+00  1.50000000E+00
  1.20000000E+00  1.20000000E+00  1.50000000E+00  1.20000000E+00  1.20000000E+00
  1.50000000E+00  1.20000000E+00  1.20000000E+00  1.50000000E+00  1.20000000E+00
  1.20000000E+00  1.50000000E+00  1.20000000E+00  1.20000000E+00  1.50000000E+00
  1.20000000E+00  1.20000000E+00  1.50000000E+00  1.20000000E+00  1.20000000E+00
  1.50000000E+00  1.20000000E+00  1.20000000E+00  1.50000000E+00  1.20000000E+00
  1.20000000E+00  1.50000000E+00  1.20000000E+00  1.20000000E+00  1.50000000E+00
  1.20000000E+00  1.20000000E+00  1.50000000E+00  1.20000000E+00  1.20000000E+00
  1.50000000E+00  1.20000000E+00  1.20000000E+00  1.50000000E+00  1.20000000E+00
  1.20000000E+00  1.50000000E+00  1.20000000E+00  1.20000000E+00  1.50000000E+00
  1.20000000E+00  1.20000000E+00  1.50000000E+00  1.20000000E+00  1.20000000E+00
  1.50000000E+00  1.20000000E+00  1.20000000E+00  1.50000000E+00  1.20000000E+00
  1.20000000E+00  1.50000000E+00  1.20000000E+00  1.20000000E+00  1.50000000E+00
  1.20000000E+00  1.20000000E+00  1.50000000E+00  1.20000000E+00  1.20000000E+00
  1.50000000E+00  1.20000000E+00  1.20000000E+00  1.50000000E+00  1.20000000E+00
  1.20000000E+00  1.50000000E+00  1.20000000E+00  1.20000000E+00  1.50000000E+00
  1.20000000E+00  1.20000000E+00  1.50000000E+00  1.20000000E+00  1.20000000E+00
  1.50000000E+00  1.20000000E+00  1.20000000E+00  1.50000000E+00  1.20000000E+00
  1.20000000E+00  1.50000000E+00  1.20000000E+00  1.20000000E+00  1.50000000E+00
  1.20000000E+00  1.20000000E+00  1.50000000E+00  1.20000000E+00  1.20000000E+00
  1.50000000E+00  1.20000000E+00  1.20000000E+00  1.50000000E+00  1.20000000E+00
  1.20000000E+00  1.50000000E+00  1.20000000E+00  1.20000000E+00  1.50000000E+00
  1.20000000E+00  1.20000000E+00  1.50000000E+00  1.20000000E+00  1.20000000E+00
  1.50000000E+00  1.20000000E+00  1.20000000E+00  1.50000000E+00  1.20000000E+00
  1.20000000E+00  1.50000000E+00  1.20000000E+00  1.20000000E+00  1.50000000E+00
  1.20000000E+00  1.20000000E+00  1.50000000E+00  1.20000000E+00  1.20000000E+00
  1.50000000E+00  1.20000000E+00  1.20000000E+00  1.50000000E+00  1.20000000E+00
  1.20000000E+00  1.50000000E+00  1.20000000E+00  1.20000000E+00  1.50000000E+00
  1.20000000E+00  1.20000000E+00  1.50000000E+00  1.20000000E+00  1.20000000E+00
  1.50000000E+00  1.20000000E+00  1.20000000E+00  1.50000000E+00  1.20000000E+00
  1.20000000E+00  1.50000000E+00  1.20000000E+00  1.20000000E+00  1.50000000E+00
  1.20000000E+00  1.20000000E+00  1.50000000E+00  1.20000000E+00  1.20000000E+00
  1.50000000E+00  1.20000000E+00  1.20000000E+00  1.50000000E+00  1.20000000E+00
  1.20000000E+00  1.50000000E+00  1.20000000E+00  1.20000000E+00  1.50000000E+00
  1.20000000E+00  1.20000000E+00  1.50000000E+00  1.20000000E+00  1.20000000E+00
  1.50000000E+00  1.20000000E+00  1.20000000E+00  1.50000000E+00  1.20000000E+00
  1.20000000E+00  1.50000000E+00  1.20000000E+00  1.20000000E+00  1.50000000E+00
  1.20000000E+00  1.20000000E+00  1.50000000E+00  1.20000000E+00  1.20000000E+00
  1.50000000E+00  1.20000000E+00  1.20000000E+00  1.50000000E+00  1.20000000E+00
  1.20000000E+00  1.50000000E+00  1.20000000E+00  1.20000000E+00  1.50000000E+00
  1.20000000E+00  1.20000000E+00  1.50000000E+00  1.20000000E+00  1.20000000E+00
  1.50000000E+00  1.20000000E+00  1.20000000E+00  1.50000000E+00  1.20000000E+00
  1.20000000E+00  1.50000000E+00  1.20000000E+00  1.20000000E+00  1.50000000E+00
  1.20000000E+00  1.20000000E+00  1.50000000E+00  1.20000000E+00  1.20000000E+00
  1.50000000E+00  1.20000000E+00  1.20000000E+00  1.50000000E+00  1.20000000E+00
  1.20000000E+00  1.50000000E+00  1.20000000E+00  1.20000000E+00  1.50000000E+00
  1.20000000E+00  1.20000000E+00  1.50000000E+00  1.20000000E+00  1.20000000E+00
  1.50000000E+00  1.20000000E+00  1.20000000E+00  1.50000000E+00  1.20000000E+00
  1.20000000E+00  1.50000000E+00  1.20000000E+00  1.20000000E+00  1.50000000E+00
  1.20000000E+00  1.20000000E+00  1.50000000E+00  1.20000000E+00  1.20000000E+00
  1.50000000E+00  1.20000000E+00  1.20000000E+00  1.50000000E+00  1.20000000E+00
  1.20000000E+00  1.50000000E+00  1.20000000E+00  1.20000000E+00  1.50000000E+00
  1.20000000E+00  1.20000000E+00  1.50000000E+00  1.20000000E+00  1.20000000E+00
  1.50000000E+00  1.20000000E+00  1.20000000E+00  1.50000000E+00  1.20000000E+00
  1.20000000E+00  1.50000000E+00  1.20000000E+00  1.20000000E+00  1.50000000E+00
  1.20000000E+00  1.20000000E+00  1.50000000E+00  1.20000000E+00  1.20000000E+00
  1.50000000E+00  1.20000000E+00  1.20000000E+00  1.50000000E+00  1.20000000E+00
  1.20000000E+00  1.50000000E+00  1.20000000E+00  1.20000000E+00  1.50000000E+00
  1.20000000E+00  1.20000000E+00  1.50000000E+00  1.20000000E+00  1.20000000E+00
  1.50000000E+00  1.20000000E+00  1.20000000E+00  1.50000000E+00  1.20000000E+00
  1.20000000E+00  1.50000000E+00  1.20000000E+00  1.20000000E+00  1.50000000E+00
  1.20000000E+00  1.20000000E+00  1.50000000E+00  1.20000000E+00  1.20000000E+00
  1.50000000E+00  1.20000000E+00  1.20000000E+00  1.50000000E+00  1.20000000E+00
  1.20000000E+00  1.50000000E+00  1.20000000E+00  1.20000000E+00  1.50000000E+00
  1.20000000E+00  1.20000000E+00  1.50000000E+00  1.20000000E+00  1.20000000E+00
  1.50000000E+00  1.20000000E+00  1.20000000E+00  1.50000000E+00  1.20000000E+00
  1.20000000E+00  1.50000000E+00  1.20000000E+00  1.20000000E+00  1.50000000E+00
  1.20000000E+00  1.20000000E+00  1.50000000E+00  1.20000000E+00  1.20000000E+00
  1.50000000E+00  1.20000000E+00  1.20000000E+00  1.50000000E+00  1.20000000E+00
  1.20000000E+00  1.50000000E+00  1.20000000E+00  1.20000000E+00  1.50000000E+00
  1.20000000E+00  1.20000000E+00  1.50000000E+00  1.20000000E+00  1.20000000E+00
  1.50000000E+00  1.20000000E+00  1.20000000E+00  1.50000000E+00  1.20000000E+00
  1.20000000E+00  1.50000000E+00  1.20000000E+00  1.20000000E+00  1.50000000E+00
  1.20000000E+00  1.20000000E+00  1.50000000E+00  1.20000000E+00  1.20000000E+00
  1.50000000E+00  1.20000000E+00  1.20000000E+00  1.50000000E+00  1.20000000E+00
  1.20000000E+00  1.50000000E+00  1.20000000E+00  1.20000000E+00  1.50000000E+00
  1.20000000E+00  1.20000000E+00  1.50000000E+00  1.20000000E+00  1.20000000E+00
  1.50000000E+00  1.20000000E+00  1.20000000E+00  1.50000000E+00  1.20000000E+00
  1.20000000E+00  1.50000000E+00  1.20000000E+00  1.20000000E+00  1.50000000E+00
  1.20000000E+00  1.20000000E+00  1.50000000E+00  1.20000000E+00  1.20000000E+00
  1.50000000E+00  1.20000000E+00  1.20000000E+00  1.50000000E+00  1.20000000E+00
  1.20000000E+00  1.50000000E+00  1.20000000E+00  1.20000000E+00  1.50000000E+00
  1.20000000E+00  1.20000000E+00  1.50000000E+00  1.20000000E+00  1.20000000E+00
  1.50000000E+00  1.20000000E+00  1.20000000E+00  1.50000000E+00  1.20000000E+00
  1.20000000E+00  1.50000000E+00  1.20000000E+00  1.20000000E+00  1.50000000E+00
  1.20000000E+00  1.20000000E+00  1.50000000E+00  1.20000000E+00  1.20000000E+00
  1.50000000E+00  1.20000000E+00  1.20000000E+00  1.50000000E+00  1.20000000E+00
  1.20000000E+00  1.50000000E+00  1.20000000E+00  1.20000000E+00  1.50000000E+00
  1.20000000E+00  1.20000000E+00  1.50000000E+00  1.20000000E+00  1.20000000E+00
  1.50000000E+00  1.20000000E+00  1.20000000E+00  1.50000000E+00  1.20000000E+00
  1.20000000E+00  1.50000000E+00  1.20000000E+00  1.20000000E+00  1.50000000E+00
  1.20000000E+00  1.20000000E+00  1.50000000E+00  1.20000000E+00  1.20000000E+00
  1.50000000E+00  1.20000000E+00  1.20000000E+00  1.50000000E+00  1.20000000E+00
  1.20000000E+00  1.50000000E+00  1.20000000E+00  1.20000000E+00  1.50000000E+00
  1.20000000E+00  1.20000000E+00  1.50000000E+00  1.20000000E+00  1.20000000E+00
  1.50000000E+00  1.20000000E+00  1.20000000E+00  1.50000000E+00  1.20000000E+00
  1.20000000E+00  1.50000000E+00  1.20000000E+00  1.20000000E+00  1.50000000E+00
  1.20000000E+00  1.20000000E+00  1.50000000E+00  1.20000000E+00  1.20000000E+00
  1.50000000E+00  1.20000000E+00  1.20000000E+00  1.50000000E+00  1.20000000E+00
  1.20000000E+00  1.50000000E+00  1.20000000E+00  1.20000000E+00  1.50000000E+00
  1.20000000E+00  1.20000000E+00  1.50000000E+00  1.20000000E+00  1.20000000E+00
  1.50000000E+00  1.20000000E+00  1.20000000E+00  1.50000000E+00  1.20000000E+00
  1.20000000E+00  1.50000000E+00  1.20000000E+00  1.20000000E+00  1.50000000E+00
  1.20000000E+00  1.20000000E+00  1.50000000E+00  1.20000000E+00  1.20000000E+00
  1.50000000E+00  1.20000000E+00  1.20000000E+00  1.50000000E+00  1.20000000E+00
  1.20000000E+00  1.50000000E+00  1.20000000E+00  1.20000000E+00  1.50000000E+00
  1.20000000E+00  1.20000000E+00  1.50000000E+00  1.20000000E+00  1.20000000E+00
  1.50000000E+00  1.20000000E+00  1.20000000E+00  1.50000000E+00  1.20000000E+00
  1.20000000E+00  1.50000000E+00  1.20000000E+00  1.20000000E+00  1.50000000E+00
  1.20000000E+00  1.20000000E+00  1.50000000E+00  1.20000000E+00  1.20000000E+00
  1.50000000E+00  1.20000000E+00  1.20000000E+00  1.50000000E+00  1.20000000E+00
  1.20000000E+00  1.50000000E+00  1.20000000E+00  1.20000000E+00  1.50000000E+00
  1.20000000E+00  1.20000000E+00  1.50000000E+00  1.20000000E+00  1.20000000E+00
  1.50000000E+00  1.20000000E+00  1.20000000E+00  1.50000000E+00  1.20000000E+00
  1.20000000E+00  1.50000000E+00  1.20000000E+00  1.20000000E+00  1.50000000E+00
  1.20000000E+00  1.20000000E+00  1.50000000E+00  1.20000000E+00  1.20000000E+00
  1.50000000E+00  1.20000000E+00  1.20000000E+00  1.50000000E+00  1.20000000E+00
  1.20000000E+00  1.50000000E+00  1.20000000E+00  1.20000000E+00  1.50000000E+00
  1.20000000E+00  1.20000000E+00  1.50000000E+00  1.20000000E+00  1.20000000E+00
  1.50000000E+00  1.20000000E+00  1.20000000E+00  1.50000000E+00  1.20000000E+00
  1.20000000E+00  1.50000000E+00  1.20000000E+00  1.20000000E+00  1.50000000E+00
  1.20000000E+00  1.20000000E+00  1.50000000E+00  1.20000000E+00  1.20000000E+00
  1.50000000E+00  1.20000000E+00  1.20000000E+00  1.50000000E+00  1.20000000E+00
  1.20000000E+00  1.50000000E+00  1.20000000E+00  1.20000000E+00  1.50000000E+00
  1.20000000E+00  1.20000000E+00  1.50000000E+00  1.20000000E+00  1.20000000E+00
  1.50000000E+00  1.20000000E+00  1.20000000E+00  1.50000000E+00  1.20000000E+00
  1.20000000E+00  1.50000000E+00  1.20000000E+00  1.20000000E+00  1.50000000E+00
  1.20000000E+00  1.20000000E+00  1.50000000E+00  1.20000000E+00  1.20000000E+00
  1.50000000E+00  1.20000000E+00  1.20000000E+00  1.50000000E+00  1.20000000E+00
  1.20000000E+00  1.50000000E+00  1.20000000E+00  1.20000000E+00  1.50000000E+00
  1.20000000E+00  1.20000000E+00  1.50000000E+00  1.20000000E+00  1.20000000E+00
  1.50000000E+00  1.20000000E+00  1.20000000E+00  1.50000000E+00  1.20000000E+00
  1.20000000E+00  1.50000000E+00  1.20000000E+00  1.20000000E+00  1.50000000E+00
  1.20000000E+00  1.20000000E+00  1.50000000E+00  1.20000000E+00  1.20000000E+00
  1.50000000E+00  1.20000000E+00  1.20000000E+00  1.50000000E+00  1.20000000E+00
  1.20000000E+00  1.50000000E+00  1.20000000E+00  1.20000000E+00  1.50000000E+00
  1.20000000E+00  1.20000000E+00  1.50000000E+00  1.20000000E+00  1.20000000E+00
  1.50000000E+00  1.20000000E+00  1.20000000E+00  1.50000000E+00  1.20000000E+00
  1.20000000E+00  1.50000000E+00  1.20000000E+00  1.20000000E+00  1.50000000E+00
  1.20000000E+00  1.20000000E+00  1.50000000E+00  1.20000000E+00  1.20000000E+00
  1.50000000E+00  1.20000000E+00  1.20000000E+00  1.50000000E+00  1.20000000E+00
  1.20000000E+00  1.50000000E+00  1.20000000E+00  1.20000000E+00  1.50000000E+00
  1.20000000E+00  1.20000000E+00  1.50000000E+00  1.20000000E+00  1.20000000E+00
  1.50000000E+00  1.20000000E+00  1.20000000E+00  1.50000000E+00  1.20000000E+00
  1.20000000E+00  1.50000000E+00  1.20000000E+00  1.20000000E+00  1.50000000E+00
  1.20000000E+00  1.20000000E+00  1.50000000E+00  1.20000000E+00  1.20000000E+00
  1.50000000E+00  1.20000000E+00  1.20000000E+00  1.50000000E+00  1.20000000E+00
  1.20000000E+00  1.50000000E+00  1.20000000E+00  1.20000000E+00  1.50000000E+00
  1.20000000E+00  1.20000000E+00  1.50000000E+00  1.20000000E+00  1.20000000E+00
  1.50000000E+00  1.20000000E+00  1.20000000E+00  1.50000000E+00  1.20000000E+00
  1.20000000E+00  1.50000000E+00  1.20000000E+00  1.20000000E+00  1.50000000E+00
  1.20000000E+00  1.20000000E+00  1.50000000E+00  1.20000000E+00  1.20000000E+00
  1.50000000E+00  1.20000000E+00  1.20000000E+00  1.50000000E+00  1.20000000E+00
  1.20000000E+00  1.50000000E+00  1.20000000E+00  1.20000000E+00  1.50000000E+00
  1.20000000E+00  1.20000000E+00  1.50000000E+00  1.20000000E+00  1.20000000E+00
  1.50000000E+00  1.20000000E+00  1.20000000E+00  1.50000000E+00  1.20000000E+00
  1.20000000E+00  1.50000000E+00  1.20000000E+00  1.20000000E+00  1.50000000E+00
  1.20000000E+00  1.20000000E+00  1.50000000E+00  1.20000000E+00  1.20000000E+00
  1.50000000E+00  1.20000000E+00  1.20000000E+00  1.50000000E+00  1.20000000E+00
  1.20000000E+00  1.50000000E+00  1.20000000E+00  1.20000000E+00  1.50000000E+00
  1.20000000E+00  1.20000000E+00  1.50000000E+00  1.20000000E+00  1.20000000E+00
  1.50000000E+00  1.20000000E+00  1.20000000E+00  1.50000000E+00  1.20000000E+00
  1.20000000E+00  1.50000000E+00  1.20000000E+00  1.20000000E+00  1.50000000E+00
  1.20000000E+00  1.20000000E+00  1.50000000E+00  1.20000000E+00  1.20000000E+00
  1.50000000E+00  1.20000000E+00  1.20000000E+00  1.50000000E+00  1.20000000E+00
  1.20000000E+00  1.50000000E+00  1.20000000E+00  1.20000000E+00  1.50000000E+00
  1.20000000E+00  1.20000000E+00  1.50000000E+00  1.20000000E+00  1.20000000E+00
  1.50000000E+00  1.20000000E+00  1.20000000E+00  1.50000000E+00  1.20000000E+00
  1.20000000E+00  1.50000000E+00  1.20000000E+00  1.20000000E+00  1.50000000E+00
  1.20000000E+00  1.20000000E+00  1.50000000E+00  1.20000000E+00  1.20000000E+00
  1.50000000E+00  1.20000000E+00  1.20000000E+00  1.50000000E+00  1.20000000E+00
  1.20000000E+00  1.50000000E+00  1.20000000E+00  1.20000000E+00  1.50000000E+00
  1.20000000E+00  1.20000000E+00  1.50000000E+00  1.20000000E+00  1.20000000E+00
  1.50000000E+00  1.20000000E+00  1.20000000E+00  1.50000000E+00  1.20000000E+00
  1.20000000E+00  1.50000000E+00  1.20000000E+00  1.20000000E+00  1.50000000E+00
  1.20000000E+00  1.20000000E+00  1.50000000E+00  1.20000000E+00  1.20000000E+00
  1.50000000E+00  1.20000000E+00  1.20000000E+00  1.50000000E+00  1.20000000E+00
  1.20000000E+00  1.50000000E+00  1.20000000E+00  1.20000000E+00  1.50000000E+00
  1.20000000E+00  1.20000000E+00  1.50000000E+00  1.20000000E+00  1.20000000E+00
  1.50000000E+00  1.20000000E+00  1.20000000E+00  1.50000000E+00  1.20000000E+00
  1.20000000E+00  1.50000000E+00  1.20000000E+00  1.20000000E+00  1.50000000E+00
  1.20000000E+00  1.20000000E+00  1.50000000E+00  1.20000000E+00  1.20000000E+00
  1.50000000E+00  1.20000000E+00  1.20000000E+00  1.50000000E+00  1.20000000E+00
  1.20000000E+00  1.50000000E+00  1.20000000E+00  1.20000000E+00  1.50000000E+00
  1.20000000E+00  1.20000000E+00  1.50000000E+00  1.20000000E+00  1.20000000E+00
  1.50000000E+00  1.20000000E+00  1.20000000E+00  1.50000000E+00  1.20000000E+00
  1.20000000E+00  1.50000000E+00  1.20000000E+00  1.20000000E+00  1.50000000E+00
  1.20000000E+00  1.20000000E+00  1.50000000E+00  1.20000000E+00  1.20000000E+00
  1.50000000E+00  1.20000000E+00  1.20000000E+00  1.50000000E+00  1.20000000E+00
  1.20000000E+00  1.50000000E+00  1.20000000E+00  1.20000000E+00  1.50000000E+00
  1.20000000E+00  1.20000000E+00  1.50000000E+00  1.20000000E+00  1.20000000E+00
  1.50000000E+00  1.20000000E+00  1.20000000E+00  1.50000000E+00  1.20000000E+00
  1.20000000E+00  1.50000000E+00  1.20000000E+00  1.20000000E+00  1.50000000E+00
  1.20000000E+00  1.20000000E+00  1.50000000E+00  1.20000000E+00  1.20000000E+00
  1.50000000E+00  1.20000000E+00  1.20000000E+00  1.50000000E+00  1.20000000E+00
  1.20000000E+00  1.50000000E+00  1.20000000E+00  1.20000000E+00  1.50000000E+00
  1.20000000E+00  1.20000000E+00  1.50000000E+00  1.20000000E+00  1.20000000E+00
  1.50000000E+00  1.20000000E+00  1.20000000E+00  1.50000000E+00  1.20000000E+00
  1.20000000E+00  1.50000000E+00  1.20000000E+00  1.20000000E+00  1.50000000E+00
  1.20000000E+00  1.20000000E+00  1.50000000E+00  1.20000000E+00  1.20000000E+00
  1.50000000E+00  1.20000000E+00  1.20000000E+00  1.50000000E+00  1.20000000E+00
  1.20000000E+00  1.50000000E+00  1.20000000E+00  1.20000000E+00  1.50000000E+00
  1.20000000E+00  1.20000000E+00  1.50000000E+00  1.20000000E+00  1.20000000E+00
  1.50000000E+00  1.20000000E+00  1.20000000E+00  1.50000000E+00  1.20000000E+00
  1.20000000E+00  1.50000000E+00  1.20000000E+00  1.20000000E+00  1.50000000E+00
  1.20000000E+00  1.20000000E+00  1.50000000E+00  1.20000000E+00  1.20000000E+00
  1.50000000E+00  1.20000000E+00  1.20000000E+00  1.50000000E+00  1.20000000E+00
  1.20000000E+00  1.50000000E+00  1.20000000E+00  1.20000000E+00  1.50000000E+00
  1.20000000E+00  1.20000000E+00  1.50000000E+00  1.20000000E+00  1.20000000E+00
  1.50000000E+00  1.20000000E+00  1.20000000E+00  1.50000000E+00  1.20000000E+00
  1.20000000E+00  1.50000000E+00  1.20000000E+00  1.20000000E+00  1.50000000E+00
  1.20000000E+00  1.20000000E+00  1.50000000E+00  1.20000000E+00  1.20000000E+00
  1.50000000E+00  1.20000000E+00  1.20000000E+00  1.50000000E+00  1.20000000E+00
  1.20000000E+00  1.50000000E+00  1.20000000E+00  1.20000000E+00  1.50000000E+00
  1.20000000E+00  1.20000000E+00  1.50000000E+00  1.20000000E+00  1.20000000E+00
  1.50000000E+00  1.20000000E+00  1.20000000E+00  1.50000000E+00  1.20000000E+00
  1.20000000E+00  1.50000000E+00  1.20000000E+00  1.20000000E+00  1.50000000E+00
  1.20000000E+00  1.20000000E+00  1.50000000E+00  1.20000000E+00  1.20000000E+00
  1.50000000E+00  1.20000000E+00  1.20000000E+00  1.50000000E+00  1.20000000E+00
  1.20000000E+00  1.50000000E+00  1.20000000E+00  1.20000000E+00  1.50000000E+00
  1.20000000E+00  1.20000000E+00  1.50000000E+00  1.20000000E+00  1.20000000E+00
  1.50000000E+00  1.20000000E+00  1.20000000E+00  1.50000000E+00  1.20000000E+00
  1.20000000E+00  1.50000000E+00  1.20000000E+00  1.20000000E+00  1.50000000E+00
  1.20000000E+00  1.20000000E+00  1.50000000E+00  1.20000000E+00  1.20000000E+00
  1.50000000E+00  1.20000000E+00  1.20000000E+00  1.50000000E+00  1.20000000E+00
  1.20000000E+00  1.50000000E+00  1.20000000E+00  1.20000000E+00  1.50000000E+00
  1.20000000E+00  1.20000000E+00  1.50000000E+00  1.20000000E+00  1.20000000E+00
  1.50000000E+00  1.20000000E+00  1.20000000E+00  1.50000000E+00  1.20000000E+00
  1.20000000E+00  1.50000000E+00  1.20000000E+00  1.20000000E+00  1.50000000E+00
  1.20000000E+00  1.20000000E+00  1.50000000E+00  1.20000000E+00  1.20000000E+00
  1.50000000E+00  1.20000000E+00  1.20000000E+00  1.50000000E+00  1.20000000E+00
  1.20000000E+00  1.50000000E+00  1.20000000E+00  1.20000000E+00  1.50000000E+00
  1.20000000E+00  1.20000000E+00  1.50000000E+00  1.20000000E+00  1.20000000E+00
  1.50000000E+00  1.20000000E+00  1.20000000E+00  1.50000000E+00  1.20000000E+00
  1.20000000E+00  1.50000000E+00  1.20000000E+00  1.20000000E+00  1.50000000E+00
  1.20000000E+00  1.20000000E+00  1.50000000E+00  1.20000000E+00  1.20000000E+00
  1.50000000E+00  1.20000000E+00  1.20000000E+00  1.50000000E+00  1.20000000E+00
  1.20000000E+00  1.50000000E+00  1.20000000E+00  1.20000000E+00  1.50000000E+00
  1.20000000E+00  1.20000000E+00  1.50000000E+00  1.20000000E+00  1.20000000E+00
  1.50000000E+00  1.20000000E+00  1.20000000E+00  1.50000000E+00  1.20000000E+00
  1.20000000E+00  1.50000000E+00  1.20000000E+00  1.20000000E+00  1.50000000E+00
  1.20000000E+00  1.20000000E+00  1.50000000E+00  1.20000000E+00  1.20000000E+00
  1.50000000E+00  1.20000000E+00  1.20000000E+00  1.50000000E+00  1.20000000E+00
  1.20000000E+00  1.50000000E+00  1.20000000E+00  1.20000000E+00  1.50000000E+00
  1.20000000E+00  1.20000000E+00  1.50000000E+00  1.20000000E+00  1.20000000E+00
  1.50000000E+00  1.20000000E+00  1.20000000E+00  1.50000000E+00  1.20000000E+00
  1.20000000E+00  1.50000000E+00  1.20000000E+00  1.20000000E+00  1.50000000E+00
  1.20000000E+00  1.20000000E+00  1.50000000E+00  1.20000000E+00  1.20000000E+00
  1.50000000E+00  1.20000000E+00  1.20000000E+00  1.50000000E+00  1.20000000E+00
  1.20000000E+00  1.50000000E+00  1.20000000E+00  1.20000000E+00  1.50000000E+00
  1.20000000E+00  1.20000000E+00  1.50000000E+00  1.20000000E+00  1.20000000E+00
  1.50000000E+00  1.20000000E+00  1.20000000E+00  1.50000000E+00  1.20000000E+00
  1.20000000E+00  1.50000000E+00  1.20000000E+00  1.20000000E+00  1.50000000E+00
  1.20000000E+00  1.20000000E+00  1.50000000E+00  1.20000000E+00  1.20000000E+00
  1.50000000E+00  1.20000000E+00  1.20000000E+00  1.50000000E+00  1.20000000E+00
  1.20000000E+00  1.50000000E+00  1.20000000E+00  1.20000000E+00  1.50000000E+00
  1.20000000E+00  1.20000000E+00  1.50000000E+00  1.20000000E+00  1.20000000E+00
  1.50000000E+00  1.20000000E+00  1.20000000E+00  1.50000000E+00  1.20000000E+00
  1.20000000E+00  1.50000000E+00  1.20000000E+00  1.20000000E+00  1.50000000E+00
  1.20000000E+00  1.20000000E+00  1.50000000E+00  1.20000000E+00  1.20000000E+00
  1.50000000E+00  1.20000000E+00  1.20000000E+00  1.50000000E+00  1.20000000E+00
  1.20000000E+00  1.50000000E+00  1.20000000E+00  1.20000000E+00  1.50000000E+00
  1.20000000E+00  1.20000000E+00  1.50000000E+00  1.20000000E+00  1.20000000E+00
  1.50000000E+00  1.20000000E+00  1.20000000E+00  1.50000000E+00  1.20000000E+00
  1.20000000E+00  1.50000000E+00  1.20000000E+00  1.20000000E+00  1.50000000E+00
  1.20000000E+00  1.20000000E+00  1.50000000E+00  1.20000000E+00  1.20000000E+00
  1.50000000E+00  1.20000000E+00  1.20000000E+00  1.50000000E+00  1.20000000E+00
  1.20000000E+00  1.50000000E+00  1.20000000E+00  1.20000000E+00  1.50000000E+00
  1.20000000E+00  1.20000000E+00  1.50000000E+00  1.20000000E+00  1.20000000E+00
  1.50000000E+00  1.20000000E+00  1.20000000E+00  1.50000000E+00  1.20000000E+00
  1.20000000E+00  1.50000000E+00  1.20000000E+00  1.20000000E+00  1.50000000E+00
  1.20000000E+00  1.20000000E+00  1.50000000E+00  1.20000000E+00  1.20000000E+00
  1.50000000E+00  1.20000000E+00  1.20000000E+00  1.50000000E+00  1.20000000E+00
  1.20000000E+00  1.50000000E+00  1.20000000E+00  1.20000000E+00  1.50000000E+00
  1.20000000E+00  1.20000000E+00  1.50000000E+00  1.20000000E+00  1.20000000E+00
  1.50000000E+00  1.20000000E+00  1.20000000E+00  1.50000000E+00  1.20000000E+00
  1.20000000E+00  1.50000000E+00  1.20000000E+00  1.20000000E+00  1.50000000E+00
  1.20000000E+00  1.20000000E+00  1.50000000E+00  1.20000000E+00  1.20000000E+00
  1.50000000E+00  1.20000000E+00  1.20000000E+00  1.50000000E+00  1.20000000E+00
  1.20000000E+00  1.50000000E+00  1.20000000E+00  1.20000000E+00  1.50000000E+00
  1.20000000E+00  1.20000000E+00  1.50000000E+00  1.20000000E+00  1.20000000E+00
  1.50000000E+00  1.20000000E+00  1.20000000E+00  1.50000000E+00  1.20000000E+00
  1.20000000E+00  1.50000000E+00  1.20000000E+00  1.20000000E+00  1.50000000E+00
  1.20000000E+00  1.20000000E+00  1.50000000E+00  1.20000000E+00  1.20000000E+00
  1.50000000E+00  1.20000000E+00  1.20000000E+00  1.50000000E+00  1.20000000E+00
  1.20000000E+00  1.50000000E+00  1.20000000E+00  1.20000000E+00  1.50000000E+00
  1.20000000E+00  1.20000000E+00  1.50000000E+00  1.20000000E+00  1.20000000E+00
  1.50000000E+00  1.20000000E+00  1.20000000E+00  1.50000000E+00  1.20000000E+00
  1.20000000E+00  1.50000000E+00  1.20000000E+00  1.20000000E+00  1.50000000E+00
  1.20000000E+00  1.20000000E+00  1.50000000E+00  1.20000000E+00  1.20000000E+00
  1.50000000E+00  1.20000000E+00  1.20000000E+00  1.50000000E+00  1.20000000E+00
  1.20000000E+00  1.50000000E+00  1.20000000E+00  1.20000000E+00  1.50000000E+00
  1.20000000E+00  1.20000000E+00  1.50000000E+00  1.20000000E+00  1.20000000E+00
  1.50000000E+00  1.20000000E+00  1.20000000E+00  1.50000000E+00  1.20000000E+00
  1.20000000E+00  1.50000000E+00  1.20000000E+00  1.20000000E+00  1.50000000E+00
  1.20000000E+00  1.20000000E+00  1.50000000E+00  1.20000000E+00  1.20000000E+00
  1.50000000E+00  1.20000000E+00  1.20000000E+00  1.50000000E+00  1.20000000E+00
  1.20000000E+00  1.50000000E+00  1.20000000E+00  1.20000000E+00  1.50000000E+00
  1.20000000E+00  1.20000000E+00  1.50000000E+00  1.20000000E+00  1.20000000E+00
  1.50000000E+00  1.20000000E+00  1.20000000E+00  1.50000000E+00  1.20000000E+00
  1.20000000E+00  1.50000000E+00  1.20000000E+00  1.20000000E+00  1.50000000E+00
  1.20000000E+00  1.20000000E+00  1.50000000E+00  1.20000000E+00  1.20000000E+00
  1.50000000E+00  1.20000000E+00  1.20000000E+00  1.50000000E+00  1.20000000E+00
  1.20000000E+00  1.50000000E+00  1.20000000E+00  1.20000000E+00  1.50000000E+00
  1.20000000E+00  1.20000000E+00  1.50000000E+00  1.20000000E+00  1.20000000E+00
  1.50000000E+00  1.20000000E+00  1.20000000E+00  1.50000000E+00  1.20000000E+00
  1.20000000E+00  1.50000000E+00  1.20000000E+00  1.20000000E+00  1.50000000E+00
  1.20000000E+00  1.20000000E+00  1.50000000E+00  1.20000000E+00  1.20000000E+00
  1.50000000E+00  1.20000000E+00  1.20000000E+00  1.50000000E+00  1.20000000E+00
  1.20000000E+00  1.50000000E+00  1.20000000E+00  1.20000000E+00  1.50000000E+00
  1.20000000E+00  1.20000000E+00  1.50000000E+00  1.20000000E+00  1.20000000E+00
  1.50000000E+00  1.20000000E+00  1.20000000E+00  1.50000000E+00  1.20000000E+00
  1.20000000E+00  1.50000000E+00  1.20000000E+00  1.20000000E+00  1.50000000E+00
  1.20000000E+00  1.20000000E+00  1.50000000E+00  1.20000000E+00  1.20000000E+00
  1.50000000E+00  1.20000000E+00  1.20000000E+00  1.50000000E+00  1.20000000E+00
  1.20000000E+00  1.50000000E+00  1.20000000E+00  1.20000000E+00  1.50000000E+00
  1.20000000E+00  1.20000000E+00  1.50000000E+00  1.20000000E+00  1.20000000E+00
  1.50000000E+00  1.20000000E+00  1.20000000E+00  1.50000000E+00  1.20000000E+00
  1.20000000E+00  1.50000000E+00  1.20000000E+00  1.20000000E+00  1.50000000E+00
  1.20000000E+00  1.20000000E+00  1.50000000E+00  1.20000000E+00  1.20000000E+00
  1.50000000E+00  1.20000000E+00  1.20000000E+00  1.50000000E+00  1.20000000E+00
  1.20000000E+00  1.50000000E+00  1.20000000E+00  1.20000000E+00  1.50000000E+00
  1.20000000E+00  1.20000000E+00  1.50000000E+00  1.20000000E+00  1.20000000E+00
  1.50000000E+00  1.20000000E+00  1.20000000E+00  1.50000000E+00  1.20000000E+00
  1.20000000E+00  1.50000000E+00  1.20000000E+00  1.20000000E+00  1.50000000E+00
  1.20000000E+00  1.20000000E+00  1.50000000E+00  1.20000000E+00  1.20000000E+00
  1.50000000E+00  1.20000000E+00  1.20000000E+00  1.50000000E+00  1.20000000E+00
  1.20000000E+00  1.50000000E+00  1.20000000E+00  1.20000000E+00  1.50000000E+00
  1.20000000E+00  1.20000000E+00  1.50000000E+00  1.20000000E+00  1.20000000E+00
  1.50000000E+00  1.20000000E+00  1.20000000E+00  1.50000000E+00  1.20000000E+00
  1.20000000E+00  1.50000000E+00  1.20000000E+00  1.20000000E+00  1.50000000E+00
  1.20000000E+00  1.20000000E+00  1.50000000E+00  1.20000000E+00  1.20000000E+00
  1.50000000E+00  1.20000000E+00  1.20000000E+00  1.50000000E+00  1.20000000E+00
  1.20000000E+00  1.50000000E+00  1.20000000E+00  1.20000000E+00  1.50000000E+00
  1.20000000E+00  1.20000000E+00  1.50000000E+00  1.20000000E+00  1.20000000E+00
  1.50000000E+00  1.20000000E+00  1.20000000E+00  1.50000000E+00  1.20000000E+00
  1.20000000E+00  1.50000000E+00  1.20000000E+00  1.20000000E+00  1.50000000E+00
  1.20000000E+00  1.20000000E+00  1.50000000E+00  1.20000000E+00  1.20000000E+00
  1.50000000E+00  1.20000000E+00  1.20000000E+00  1.50000000E+00  1.20000000E+00
  1.20000000E+00  1.50000000E+00  1.20000000E+00  1.20000000E+00  1.50000000E+00
  1.20000000E+00  1.20000000E+00  1.50000000E+00  1.20000000E+00  1.20000000E+00
  1.50000000E+00  1.20000000E+00  1.20000000E+00  1.50000000E+00  1.20000000E+00
  1.20000000E+00  1.50000000E+00  1.20000000E+00  1.20000000E+00  1.50000000E+00
  1.20000000E+00  1.20000000E+00  1.50000000E+00  1.20000000E+00  1.20000000E+00
  1.50000000E+00  1.20000000E+00  1.20000000E+00  1.50000000E+00  1.20000000E+00
  1.20000000E+00  1.50000000E+00  1.20000000E+00  1.20000000E+00  1.50000000E+00
  1.20000000E+00  1.20000000E+00  1.50000000E+00  1.20000000E+00  1.20000000E+00
  1.50000000E+00  1.20000000E+00  1.20000000E+00  1.50000000E+00  1.20000000E+00
  1.20000000E+00  1.50000000E+00  1.20000000E+00  1.20000000E+00  1.50000000E+00
  1.20000000E+00  1.20000000E+00  1.50000000E+00  1.20000000E+00  1.20000000E+00
  1.50000000E+00  1.20000000E+00  1.20000000E+00  1.50000000E+00  1.20000000E+00
  1.20000000E+00  1.50000000E+00  1.20000000E+00  1.20000000E+00  1.50000000E+00
  1.20000000E+00  1.20000000E+00  1.50000000E+00  1.20000000E+00  1.20000000E+00
  1.50000000E+00  1.20000000E+00  1.20000000E+00  1.50000000E+00  1.20000000E+00
  1.20000000E+00  1.50000000E+00  1.20000000E+00  1.20000000E+00  1.50000000E+00
  1.20000000E+00  1.20000000E+00  1.50000000E+00  1.20000000E+00  1.20000000E+00
  1.50000000E+00  1.20000000E+00  1.20000000E+00  1.50000000E+00  1.20000000E+00
  1.20000000E+00  1.50000000E+00  1.20000000E+00  1.20000000E+00  1.50000000E+00
  1.20000000E+00  1.20000000E+00  1.50000000E+00  1.20000000E+00  1.20000000E+00
  1.50000000E+00  1.20000000E+00  1.20000000E+00  1.50000000E+00  1.20000000E+00
  1.20000000E+00  1.50000000E+00  1.20000000E+00  1.20000000E+00  1.50000000E+00
  1.20000000E+00  1.20000000E+00  1.50000000E+00  1.20000000E+00  1.20000000E+00
  1.50000000E+00  1.20000000E+00  1.20000000E+00  1.50000000E+00  1.20000000E+00
  1.20000000E+00  1.50000000E+00  1.20000000E+00  1.20000000E+00  1.50000000E+00
  1.20000000E+00  1.20000000E+00  1.50000000E+00  1.20000000E+00  1.20000000E+00
  1.50000000E+00  1.20000000E+00  1.20000000E+00  1.50000000E+00  1.20000000E+00
  1.20000000E+00  1.50000000E+00  1.20000000E+00  1.20000000E+00  1.50000000E+00
  1.20000000E+00  1.20000000E+00  1.50000000E+00  1.20000000E+00  1.20000000E+00
  1.50000000E+00  1.20000000E+00  1.20000000E+00  1.50000000E+00  1.20000000E+00
  1.20000000E+00  1.50000000E+00  1.20000000E+00  1.20000000E+00  1.50000000E+00
  1.20000000E+00  1.20000000E+00  1.50000000E+00  1.20000000E+00  1.20000000E+00
  1.50000000E+00  1.20000000E+00  1.20000000E+00  1.50000000E+00  1.20000000E+00
  1.20000000E+00  1.50000000E+00  1.20000000E+00  1.20000000E+00  1.50000000E+00
  1.20000000E+00  1.20000000E+00  1.50000000E+00  1.20000000E+00  1.20000000E+00
  1.50000000E+00  1.20000000E+00  1.20000000E+00  1.50000000E+00  1.20000000E+00
  1.20000000E+00  1.50000000E+00  1.20000000E+00  1.20000000E+00  1.50000000E+00
  1.20000000E+00  1.20000000E+00  1.50000000E+00  1.20000000E+00  1.20000000E+00
  1.50000000E+00  1.20000000E+00  1.20000000E+00  1.50000000E+00  1.20000000E+00
  1.20000000E+00  1.50000000E+00  1.20000000E+00  1.20000000E+00  1.50000000E+00
  1.20000000E+00  1.20000000E+00  1.50000000E+00  1.20000000E+00  1.20000000E+00
  1.50000000E+00  1.20000000E+00  1.20000000E+00  1.50000000E+00  1.20000000E+00
  1.20000000E+00  1.50000000E+00  1.20000000E+00  1.20000000E+00  1.50000000E+00
  1.20000000E+00  1.20000000E+00  1.50000000E+00  1.20000000E+00  1.20000000E+00
  1.50000000E+00  1.20000000E+00  1.20000000E+00  1.50000000E+00  1.20000000E+00
  1.20000000E+00  1.50000000E+00  1.20000000E+00  1.20000000E+00  1.50000000E+00
  1.20000000E+00  1.20000000E+00  1.50000000E+00  1.20000000E+00  1.20000000E+00
  1.50000000E+00  1.20000000E+00  1.20000000E+00  1.50000000E+00  1.20000000E+00
  1.20000000E+00  1.50000000E+00  1.20000000E+00  1.20000000E+00  1.50000000E+00
  1.20000000E+00  1.20000000E+00  1.50000000E+00  1.20000000E+00  1.20000000E+00
  1.50000000E+00  1.20000000E+00  1.20000000E+00  1.50000000E+00  1.20000000E+00
  1.20000000E+00  1.50000000E+00  1.20000000E+00  1.20000000E+00  1.50000000E+00
  1.20000000E+00  1.20000000E+00  1.50000000E+00  1.20000000E+00  1.20000000E+00
  1.50000000E+00  1.20000000E+00  1.20000000E+00  1.50000000E+00  1.20000000E+00
  1.20000000E+00  1.50000000E+00  1.20000000E+00  1.20000000E+00  1.50000000E+00
  1.20000000E+00  1.20000000E+00  1.50000000E+00  1.20000000E+00  1.20000000E+00
  1.50000000E+00  1.20000000E+00  1.20000000E+00  1.50000000E+00  1.20000000E+00
  1.20000000E+00  1.50000000E+00  1.20000000E+00  1.20000000E+00  1.50000000E+00
  1.20000000E+00  1.20000000E+00  1.50000000E+00  1.20000000E+00  1.20000000E+00
  1.50000000E+00  1.20000000E+00  1.20000000E+00  1.50000000E+00  1.20000000E+00
  1.20000000E+00  1.50000000E+00  1.20000000E+00  1.20000000E+00  1.50000000E+00
  1.20000000E+00  1.20000000E+00  1.50000000E+00  1.20000000E+00  1.20000000E+00
  1.50000000E+00  1.20000000E+00  1.20000000E+00  1.50000000E+00  1.20000000E+00
  1.20000000E+00  1.50000000E+00  1.20000000E+00  1.20000000E+00  1.50000000E+00
  1.20000000E+00  1.20000000E+00  1.50000000E+00  1.20000000E+00  1.20000000E+00
  1.50000000E+00  1.20000000E+00  1.20000000E+00  1.50000000E+00  1.20000000E+00
  1.20000000E+00  1.50000000E+00  1.20000000E+00  1.20000000E+00  1.50000000E+00
  1.20000000E+00  1.20000000E+00  1.50000000E+00  1.20000000E+00  1.20000000E+00
  1.50000000E+00  1.20000000E+00  1.20000000E+00  1.50000000E+00  1.20000000E+00
  1.20000000E+00  1.50000000E+00  1.20000000E+00  1.20000000E+00  1.50000000E+00
  1.20000000E+00  1.20000000E+00  1.50000000E+00  1.20000000E+00  1.20000000E+00
  1.50000000E+00  1.20000000E+00  1.20000000E+00  1.50000000E+00  1.20000000E+00
  1.20000000E+00  1.50000000E+00  1.20000000E+00  1.20000000E+00  1.50000000E+00
  1.20000000E+00  1.20000000E+00  1.50000000E+00  1.20000000E+00  1.20000000E+00
  1.50000000E+00  1.20000000E+00  1.20000000E+00  1.50000000E+00  1.20000000E+00
  1.20000000E+00  1.50000000E+00  1.20000000E+00  1.20000000E+00  1.50000000E+00
  1.20000000E+00  1.20000000E+00  1.50000000E+00  1.20000000E+00  1.20000000E+00
  1.50000000E+00  1.20000000E+00  1.20000000E+00  1.50000000E+00  1.20000000E+00
  1.20000000E+00  1.50000000E+00  1.20000000E+00  1.20000000E+00  1.50000000E+00
  1.20000000E+00  1.20000000E+00  1.50000000E+00  1.20000000E+00  1.20000000E+00
  1.50000000E+00  1.20000000E+00  1.20000000E+00  1.50000000E+00  1.20000000E+00
  1.20000000E+00  1.50000000E+00  1.20000000E+00  1.20000000E+00  1.50000000E+00
  1.20000000E+00  1.20000000E+00  1.50000000E+00  1.20000000E+00  1.20000000E+00
  1.50000000E+00  1.20000000E+00  1.20000000E+00  1.50000000E+00  1.20000000E+00
  1.20000000E+00  1.50000000E+00  1.20000000E+00  1.20000000E+00  1.50000000E+00
  1.20000000E+00  1.20000000E+00  1.50000000E+00  1.20000000E+00  1.20000000E+00
  1.50000000E+00  1.20000000E+00  1.20000000E+00  1.50000000E+00  1.20000000E+00
  1.20000000E+00  1.50000000E+00  1.20000000E+00  1.20000000E+00  1.50000000E+00
  1.20000000E+00  1.20000000E+00  1.50000000E+00  1.20000000E+00  1.20000000E+00
  1.50000000E+00  1.20000000E+00  1.20000000E+00  1.50000000E+00  1.20000000E+00
  1.20000000E+00  1.50000000E+00  1.20000000E+00  1.20000000E+00  1.50000000E+00
  1.20000000E+00  1.20000000E+00  1.50000000E+00  1.20000000E+00  1.20000000E+00
  1.50000000E+00  1.20000000E+00  1.20000000E+00  1.50000000E+00  1.20000000E+00
  1.20000000E+00  1.50000000E+00  1.20000000E+00  1.20000000E+00  1.50000000E+00
  1.20000000E+00  1.20000000E+00  1.50000000E+00  1.20000000E+00  1.20000000E+00
  1.50000000E+00  1.20000000E+00  1.20000000E+00  1.50000000E+00  1.20000000E+00
  1.20000000E+00  1.50000000E+00  1.20000000E+00  1.20000000E+00  1.50000000E+00
  1.20000000E+00  1.20000000E+00  1.50000000E+00  1.20000000E+00  1.20000000E+00
  1.50000000E+00  1.20000000E+00  1.20000000E+00  1.50000000E+00  1.20000000E+00
  1.20000000E+00  1.50000000E+00  1.20000000E+00  1.20000000E+00  1.50000000E+00
  1.20000000E+00  1.20000000E+00  1.50000000E+00  1.20000000E+00  1.20000000E+00
  1.50000000E+00  1.20000000E+00  1.20000000E+00  1.50000000E+00  1.20000000E+00
  1.20000000E+00  1.50000000E+00  1.20000000E+00  1.20000000E+00  1.50000000E+00
  1.20000000E+00  1.20000000E+00  1.50000000E+00  1.20000000E+00  1.20000000E+00
  1.50000000E+00  1.20000000E+00  1.20000000E+00  1.50000000E+00  1.20000000E+00
  1.20000000E+00  1.50000000E+00  1.20000000E+00  1.20000000E+00  1.50000000E+00
  1.20000000E+00  1.20000000E+00  1.50000000E+00  1.20000000E+00  1.20000000E+00
  1.50000000E+00  1.20000000E+00  1.20000000E+00  1.50000000E+00  1.20000000E+00
  1.20000000E+00  1.50000000E+00  1.20000000E+00  1.20000000E+00  1.50000000E+00
  1.20000000E+00  1.20000000E+00  1.50000000E+00  1.20000000E+00  1.20000000E+00
  1.50000000E+00  1.20000000E+00  1.20000000E+00  1.50000000E+00  1.20000000E+00
  1.20000000E+00  1.50000000E+00  1.20000000E+00  1.20000000E+00  1.50000000E+00
  1.20000000E+00  1.20000000E+00  1.50000000E+00  1.20000000E+00  1.20000000E+00
  1.50000000E+00  1.20000000E+00  1.20000000E+00  1.50000000E+00  1.20000000E+00
  1.20000000E+00  1.50000000E+00  1.20000000E+00  1.20000000E+00  1.50000000E+00
  1.20000000E+00  1.20000000E+00  1.50000000E+00  1.20000000E+00  1.20000000E+00
  1.50000000E+00  1.20000000E+00  1.20000000E+00  1.50000000E+00  1.20000000E+00
  1.20000000E+00  1.50000000E+00  1.20000000E+00  1.20000000E+00  1.50000000E+00
  1.20000000E+00  1.20000000E+00  1.50000000E+00  1.20000000E+00  1.20000000E+00
  1.50000000E+00  1.20000000E+00  1.20000000E+00  1.50000000E+00  1.20000000E+00
  1.20000000E+00  1.50000000E+00  1.20000000E+00  1.20000000E+00  1.50000000E+00
  1.20000000E+00  1.20000000E+00  1.50000000E+00  1.20000000E+00  1.20000000E+00
  1.50000000E+00  1.20000000E+00  1.20000000E+00  1.50000000E+00  1.20000000E+00
  1.20000000E+00  1.50000000E+00  1.20000000E+00  1.20000000E+00  1.50000000E+00
  1.20000000E+00  1.20000000E+00  1.50000000E+00  1.20000000E+00  1.20000000E+00
  1.50000000E+00  1.20000000E+00  1.20000000E+00  1.50000000E+00  1.20000000E+00
  1.20000000E+00  1.50000000E+00  1.20000000E+00  1.20000000E+00  1.50000000E+00
  1.20000000E+00  1.20000000E+00  1.50000000E+00  1.20000000E+00  1.20000000E+00
  1.50000000E+00  1.20000000E+00  1.20000000E+00  1.50000000E+00  1.20000000E+00
  1.20000000E+00  1.50000000E+00  1.20000000E+00  1.20000000E+00  1.50000000E+00
  1.20000000E+00  1.20000000E+00  1.50000000E+00  1.20000000E+00  1.20000000E+00
  1.50000000E+00  1.20000000E+00  1.20000000E+00  1.50000000E+00  1.20000000E+00
  1.20000000E+00  1.50000000E+00  1.20000000E+00  1.20000000E+00  1.50000000E+00
  1.20000000E+00  1.20000000E+00  1.50000000E+00  1.20000000E+00  1.20000000E+00
  1.50000000E+00  1.20000000E+00  1.20000000E+00  1.50000000E+00  1.20000000E+00
  1.20000000E+00  1.50000000E+00  1.20000000E+00  1.20000000E+00  1.50000000E+00
  1.20000000E+00  1.20000000E+00  1.50000000E+00  1.20000000E+00  1.20000000E+00
  1.50000000E+00  1.20000000E+00  1.20000000E+00  1.50000000E+00  1.20000000E+00
  1.20000000E+00  1.50000000E+00  1.20000000E+00  1.20000000E+00  1.50000000E+00
  1.20000000E+00  1.20000000E+00  1.50000000E+00  1.20000000E+00  1.20000000E+00
  1.50000000E+00  1.20000000E+00  1.20000000E+00  1.50000000E+00  1.20000000E+00
  1.20000000E+00  1.50000000E+00  1.20000000E+00  1.20000000E+00  1.50000000E+00
  1.20000000E+00  1.20000000E+00  1.50000000E+00  1.20000000E+00  1.20000000E+00
  1.50000000E+00  1.20000000E+00  1.20000000E+00  1.50000000E+00  1.20000000E+00
  1.20000000E+00  1.50000000E+00  1.20000000E+00  1.20000000E+00  1.50000000E+00
  1.20000000E+00  1.20000000E+00  1.50000000E+00  1.20000000E+00  1.20000000E+00
  1.50000000E+00  1.20000000E+00  1.20000000E+00  1.50000000E+00  1.20000000E+00
  1.20000000E+00  1.50000000E+00  1.20000000E+00  1.20000000E+00  1.50000000E+00
  1.20000000E+00  1.20000000E+00  1.50000000E+00  1.20000000E+00  1.20000000E+00
  1.50000000E+00  1.20000000E+00  1.20000000E+00  1.50000000E+00  1.20000000E+00
  1.20000000E+00  1.50000000E+00  1.20000000E+00  1.20000000E+00  1.50000000E+00
  1.20000000E+00  1.20000000E+00  1.50000000E+00  1.20000000E+00  1.20000000E+00
  1.50000000E+00  1.20000000E+00  1.20000000E+00  1.50000000E+00  1.20000000E+00
  1.20000000E+00  1.50000000E+00  1.20000000E+00  1.20000000E+00  1.50000000E+00
  1.20000000E+00  1.20000000E+00  1.50000000E+00  1.20000000E+00  1.20000000E+00
  1.50000000E+00  1.20000000E+00  1.20000000E+00  1.50000000E+00  1.20000000E+00
  1.20000000E+00  1.50000000E+00  1.20000000E+00  1.20000000E+00  1.50000000E+00
  1.20000000E+00  1.20000000E+00  1.50000000E+00  1.20000000E+00  1.20000000E+00
  1.50000000E+00  1.20000000E+00  1.20000000E+00  1.50000000E+00  1.20000000E+00
  1.20000000E+00  1.50000000E+00  1.20000000E+00  1.20000000E+00  1.50000000E+00
  1.20000000E+00  1.20000000E+00  1.50000000E+00  1.20000000E+00  1.20000000E+00
  1.50000000E+00  1.20000000E+00  1.20000000E+00  1.50000000E+00  1.20000000E+00
  1.20000000E+00  1.50000000E+00  1.20000000E+00  1.20000000E+00  1.50000000E+00
  1.20000000E+00  1.20000000E+00  1.50000000E+00  1.20000000E+00  1.20000000E+00
  1.50000000E+00  1.20000000E+00  1.20000000E+00  1.50000000E+00  1.20000000E+00
  1.20000000E+00  1.50000000E+00  1.20000000E+00  1.20000000E+00  1.50000000E+00
  1.20000000E+00  1.20000000E+00  1.50000000E+00  1.20000000E+00  1.20000000E+00
  1.50000000E+00  1.20000000E+00  1.20000000E+00  1.50000000E+00  1.20000000E+00
  1.20000000E+00  1.50000000E+00  1.20000000E+00  1.20000000E+00  1.50000000E+00
  1.20000000E+00  1.20000000E+00  1.50000000E+00  1.20000000E+00  1.20000000E+00
  1.50000000E+00  1.20000000E+00  1.20000000E+00  1.50000000E+00  1.20000000E+00
  1.20000000E+00  1.50000000E+00  1.20000000E+00  1.20000000E+00  1.50000000E+00
  1.20000000E+00  1.20000000E+00  1.50000000E+00  1.20000000E+00  1.20000000E+00
  1.50000000E+00  1.20000000E+00  1.20000000E+00  1.50000000E+00  1.20000000E+00
  1.20000000E+00  1.50000000E+00  1.20000000E+00  1.20000000E+00  1.50000000E+00
  1.20000000E+00  1.20000000E+00  1.50000000E+00  1.20000000E+00  1.20000000E+00
  1.50000000E+00  1.20000000E+00  1.20000000E+00  1.50000000E+00  1.20000000E+00
  1.20000000E+00  1.50000000E+00  1.20000000E+00  1.20000000E+00  1.50000000E+00
  1.20000000E+00  1.20000000E+00  1.50000000E+00  1.20000000E+00  1.20000000E+00
  1.50000000E+00  1.20000000E+00  1.20000000E+00  1.50000000E+00  1.20000000E+00
  1.20000000E+00  1.50000000E+00  1.20000000E+00  1.20000000E+00  1.50000000E+00
  1.20000000E+00  1.20000000E+00  1.50000000E+00  1.20000000E+00  1.20000000E+00
  1.50000000E+00  1.20000000E+00  1.20000000E+00  1.50000000E+00  1.20000000E+00
  1.20000000E+00  1.50000000E+00  1.20000000E+00  1.20000000E+00  1.50000000E+00
  1.20000000E+00  1.20000000E+00  1.50000000E+00  1.20000000E+00  1.20000000E+00
  1.50000000E+00  1.20000000E+00  1.20000000E+00  1.50000000E+00  1.20000000E+00
  1.20000000E+00  1.50000000E+00  1.20000000E+00  1.20000000E+00  1.50000000E+00
  1.20000000E+00  1.20000000E+00  1.50000000E+00  1.20000000E+00  1.20000000E+00
  1.50000000E+00  1.20000000E+00  1.20000000E+00  1.50000000E+00  1.20000000E+00
  1.20000000E+00  1.50000000E+00  1.20000000E+00  1.20000000E+00  1.50000000E+00
  1.20000000E+00  1.20000000E+00  1.50000000E+00  1.20000000E+00  1.20000000E+00
  1.50000000E+00  1.20000000E+00  1.20000000E+00  1.50000000E+00  1.20000000E+00
  1.20000000E+00  1.50000000E+00  1.20000000E+00  1.20000000E+00  1.50000000E+00
  1.20000000E+00  1.20000000E+00  1.50000000E+00  1.20000000E+00  1.20000000E+00
  1.50000000E+00  1.20000000E+00  1.20000000E+00  1.50000000E+00  1.20000000E+00
  1.20000000E+00  1.50000000E+00  1.20000000E+00  1.20000000E+00  1.50000000E+00
  1.20000000E+00  1.20000000E+00  1.50000000E+00  1.20000000E+00  1.20000000E+00
  1.50000000E+00  1.20000000E+00  1.20000000E+00  1.50000000E+00  1.20000000E+00
  1.20000000E+00  1.50000000E+00  1.20000000E+00  1.20000000E+00  1.50000000E+00
  1.20000000E+00  1.20000000E+00  1.50000000E+00  1.20000000E+00  1.20000000E+00
  1.50000000E+00  1.20000000E+00  1.20000000E+00  1.50000000E+00  1.20000000E+00
  1.20000000E+00  1.50000000E+00  1.20000000E+00  1.20000000E+00  1.50000000E+00
  1.20000000E+00  1.20000000E+00  1.50000000E+00  1.20000000E+00  1.20000000E+00
  1.50000000E+00  1.20000000E+00  1.20000000E+00  1.50000000E+00  1.20000000E+00
  1.20000000E+00  1.50000000E+00  1.20000000E+00  1.20000000E+00  1.50000000E+00
  1.20000000E+00  1.20000000E+00  1.50000000E+00  1.20000000E+00  1.20000000E+00
  1.50000000E+00  1.20000000E+00  1.20000000E+00  1.50000000E+00  1.20000000E+00
  1.20000000E+00  1.50000000E+00  1.20000000E+00  1.20000000E+00  1.50000000E+00
  1.20000000E+00  1.20000000E+00  1.50000000E+00  1.20000000E+00  1.20000000E+00
  1.50000000E+00  1.20000000E+00  1.20000000E+00  1.50000000E+00  1.20000000E+00
  1.20000000E+00  1.50000000E+00  1.20000000E+00  1.20000000E+00  1.50000000E+00
  1.20000000E+00  1.20000000E+00  1.50000000E+00  1.20000000E+00  1.20000000E+00
  1.50000000E+00  1.20000000E+00  1.20000000E+00  1.50000000E+00  1.20000000E+00
  1.20000000E+00  1.50000000E+00  1.20000000E+00  1.20000000E+00  1.50000000E+00
  1.20000000E+00  1.20000000E+00  1.50000000E+00  1.20000000E+00  1.20000000E+00
  1.50000000E+00  1.20000000E+00  1.20000000E+00  1.50000000E+00  1.20000000E+00
  1.20000000E+00  1.50000000E+00  1.20000000E+00  1.20000000E+00  1.50000000E+00
  1.20000000E+00  1.20000000E+00  1.50000000E+00  1.20000000E+00  1.20000000E+00
  1.50000000E+00  1.20000000E+00  1.20000000E+00  1.50000000E+00  1.20000000E+00
  1.20000000E+00  1.50000000E+00  1.20000000E+00  1.20000000E+00  1.50000000E+00
  1.20000000E+00  1.20000000E+00  1.50000000E+00  1.20000000E+00  1.20000000E+00
  1.50000000E+00  1.20000000E+00  1.20000000E+00  1.50000000E+00  1.20000000E+00
  1.20000000E+00  1.50000000E+00  1.20000000E+00  1.20000000E+00  1.50000000E+00
  1.20000000E+00  1.20000000E+00  1.50000000E+00  1.20000000E+00  1.20000000E+00
  1.50000000E+00  1.20000000E+00  1.20000000E+00  1.50000000E+00  1.20000000E+00
  1.20000000E+00  1.50000000E+00  1.20000000E+00  1.20000000E+00  1.50000000E+00
  1.20000000E+00  1.20000000E+00  1.50000000E+00  1.20000000E+00  1.20000000E+00
  1.50000000E+00  1.20000000E+00  1.20000000E+00  1.50000000E+00  1.20000000E+00
  1.20000000E+00  1.50000000E+00  1.20000000E+00  1.20000000E+00  1.50000000E+00
  1.20000000E+00  1.20000000E+00  1.50000000E+00  1.20000000E+00  1.20000000E+00
  1.50000000E+00  1.20000000E+00  1.20000000E+00  1.50000000E+00  1.20000000E+00
  1.20000000E+00  1.50000000E+00  1.20000000E+00  1.20000000E+00  1.50000000E+00
  1.20000000E+00  1.20000000E+00  1.50000000E+00  1.20000000E+00  1.20000000E+00
  1.50000000E+00  1.20000000E+00  1.20000000E+00  1.50000000E+00  1.20000000E+00
  1.20000000E+00  1.50000000E+00  1.20000000E+00  1.20000000E+00  1.50000000E+00
  1.20000000E+00  1.20000000E+00  1.50000000E+00  1.20000000E+00  1.20000000E+00
  1.50000000E+00  1.20000000E+00  1.20000000E+00  1.50000000E+00  1.20000000E+00
  1.20000000E+00  1.50000000E+00  1.20000000E+00  1.20000000E+00  1.50000000E+00
  1.20000000E+00  1.20000000E+00  1.50000000E+00  1.20000000E+00  1.20000000E+00
  1.50000000E+00  1.20000000E+00  1.20000000E+00  1.50000000E+00  1.20000000E+00
  1.20000000E+00  1.50000000E+00  1.20000000E+00  1.20000000E+00  1.50000000E+00
  1.20000000E+00  1.20000000E+00  1.50000000E+00  1.20000000E+00  1.20000000E+00
  1.50000000E+00  1.20000000E+00  1.20000000E+00  1.50000000E+00  1.20000000E+00
  1.20000000E+00  1.50000000E+00  1.20000000E+00  1.20000000E+00  1.50000000E+00
  1.20000000E+00  1.20000000E+00  1.50000000E+00  1.20000000E+00  1.20000000E+00
  1.50000000E+00  1.20000000E+00  1.20000000E+00  1.50000000E+00  1.20000000E+00
  1.20000000E+00  1.50000000E+00  1.20000000E+00  1.20000000E+00  1.50000000E+00
  1.20000000E+00  1.20000000E+00  1.50000000E+00  1.20000000E+00  1.20000000E+00
  1.50000000E+00  1.20000000E+00  1.20000000E+00  1.50000000E+00  1.20000000E+00
  1.20000000E+00  1.50000000E+00  1.20000000E+00  1.20000000E+00  1.50000000E+00
  1.20000000E+00  1.20000000E+00  1.50000000E+00  1.20000000E+00  1.20000000E+00
  1.50000000E+00  1.20000000E+00  1.20000000E+00  1.50000000E+00  1.20000000E+00
  1.20000000E+00  1.50000000E+00  1.20000000E+00  1.20000000E+00  1.50000000E+00
  1.20000000E+00  1.20000000E+00  1.50000000E+00  1.20000000E+00  1.20000000E+00
  1.50000000E+00  1.20000000E+00  1.20000000E+00  1.50000000E+00  1.20000000E+00
  1.20000000E+00  1.50000000E+00  1.20000000E+00  1.20000000E+00  1.50000000E+00
  1.20000000E+00  1.20000000E+00  1.50000000E+00  1.20000000E+00  1.20000000E+00
  1.50000000E+00  1.20000000E+00  1.20000000E+00  1.50000000E+00  1.20000000E+00
  1.20000000E+00  1.50000000E+00  1.20000000E+00  1.20000000E+00  1.50000000E+00
  1.20000000E+00  1.20000000E+00  1.50000000E+00  1.20000000E+00  1.20000000E+00
  1.50000000E+00  1.20000000E+00  1.20000000E+00  1.50000000E+00  1.20000000E+00
  1.20000000E+00  1.50000000E+00  1.20000000E+00  1.20000000E+00  1.50000000E+00
  1.20000000E+00  1.20000000E+00  1.50000000E+00  1.20000000E+00  1.20000000E+00
  1.50000000E+00  1.20000000E+00  1.20000000E+00  1.50000000E+00  1.20000000E+00
  1.20000000E+00  1.50000000E+00  1.20000000E+00  1.20000000E+00  1.50000000E+00
  1.20000000E+00  1.20000000E+00  1.50000000E+00  1.20000000E+00  1.20000000E+00
  1.50000000E+00  1.20000000E+00  1.20000000E+00  1.50000000E+00  1.20000000E+00
  1.20000000E+00  1.50000000E+00  1.20000000E+00  1.20000000E+00  1.50000000E+00
  1.20000000E+00  1.20000000E+00  1.50000000E+00  1.20000000E+00  1.20000000E+00
  1.50000000E+00  1.20000000E+00  1.20000000E+00  1.50000000E+00  1.20000000E+00
  1.20000000E+00  1.50000000E+00  1.20000000E+00  1.20000000E+00  1.50000000E+00
  1.20000000E+00  1.20000000E+00  1.50000000E+00  1.20000000E+00  1.20000000E+00
  1.50000000E+00  1.20000000E+00  1.20000000E+00  1.50000000E+00  1.20000000E+00
  1.20000000E+00  1.50000000E+00  1.20000000E+00  1.20000000E+00  1.50000000E+00
  1.20000000E+00  1.20000000E+00  1.50000000E+00  1.20000000E+00  1.20000000E+00
  1.50000000E+00  1.20000000E+00  1.20000000E+00  1.50000000E+00  1.20000000E+00
  1.20000000E+00  1.50000000E+00  1.20000000E+00  1.20000000E+00  1.50000000E+00
  1.20000000E+00  1.20000000E+00  1.50000000E+00  1.20000000E+00  1.20000000E+00
  1.50000000E+00  1.20000000E+00  1.20000000E+00  1.50000000E+00  1.20000000E+00
  1.20000000E+00  1.50000000E+00  1.20000000E+00  1.20000000E+00  1.50000000E+00
  1.20000000E+00  1.20000000E+00  1.50000000E+00  1.20000000E+00  1.20000000E+00
  1.50000000E+00  1.20000000E+00  1.20000000E+00  1.50000000E+00  1.20000000E+00
  1.20000000E+00  1.50000000E+00  1.20000000E+00  1.20000000E+00  1.50000000E+00
  1.20000000E+00  1.20000000E+00  1.50000000E+00  1.20000000E+00  1.20000000E+00
  1.50000000E+00  1.20000000E+00  1.20000000E+00  1.50000000E+00  1.20000000E+00
  1.20000000E+00  1.50000000E+00  1.20000000E+00  1.20000000E+00  1.50000000E+00
  1.20000000E+00  1.20000000E+00  1.50000000E+00  1.20000000E+00  1.20000000E+00
  1.50000000E+00  1.20000000E+00  1.20000000E+00  1.50000000E+00  1.20000000E+00
  1.20000000E+00  1.50000000E+00  1.20000000E+00  1.20000000E+00  1.50000000E+00
  1.20000000E+00  1.20000000E+00  1.50000000E+00  1.20000000E+00  1.20000000E+00
  1.50000000E+00  1.20000000E+00  1.20000000E+00  1.50000000E+00  1.20000000E+00
  1.20000000E+00  1.50000000E+00  1.20000000E+00  1.20000000E+00  1.50000000E+00
  1.20000000E+00  1.20000000E+00  1.50000000E+00  1.20000000E+00  1.20000000E+00
  1.50000000E+00  1.20000000E+00  1.20000000E+00  1.50000000E+00  1.20000000E+00
  1.20000000E+00  1.50000000E+00  1.20000000E+00  1.20000000E+00  1.50000000E+00
  1.20000000E+00  1.20000000E+00  1.50000000E+00  1.20000000E+00  1.20000000E+00
  1.50000000E+00  1.20000000E+00  1.20000000E+00  1.50000000E+00  1.20000000E+00
  1.20000000E+00  1.50000000E+00  1.20000000E+00  1.20000000E+00  1.50000000E+00
  1.20000000E+00  1.20000000E+00  1.50000000E+00  1.20000000E+00  1.20000000E+00
  1.50000000E+00  1.20000000E+00  1.20000000E+00  1.50000000E+00  1.20000000E+00
  1.20000000E+00  1.50000000E+00  1.20000000E+00  1.20000000E+00  1.50000000E+00
  1.20000000E+00  1.20000000E+00  1.50000000E+00  1.20000000E+00  1.20000000E+00
  1.50000000E+00  1.20000000E+00  1.20000000E+00  1.50000000E+00  1.20000000E+00
  1.20000000E+00  1.50000000E+00  1.20000000E+00  1.20000000E+00  1.50000000E+00
  1.20000000E+00  1.20000000E+00  1.50000000E+00  1.20000000E+00  1.20000000E+00
  1.50000000E+00  1.20000000E+00  1.20000000E+00  1.50000000E+00  1.20000000E+00
  1.20000000E+00  1.50000000E+00  1.20000000E+00  1.20000000E+00  1.50000000E+00
  1.20000000E+00  1.20000000E+00  1.50000000E+00  1.20000000E+00  1.20000000E+00
  1.50000000E+00  1.20000000E+00  1.20000000E+00  1.50000000E+00  1.20000000E+00
  1.20000000E+00  1.50000000E+00  1.20000000E+00  1.20000000E+00  1.50000000E+00
  1.20000000E+00  1.20000000E+00  1.50000000E+00  1.20000000E+00  1.20000000E+00
  1.50000000E+00  1.20000000E+00  1.20000000E+00  1.50000000E+00  1.20000000E+00
  1.20000000E+00  1.50000000E+00  1.20000000E+00  1.20000000E+00  1.50000000E+00
  1.20000000E+00  1.20000000E+00  1.50000000E+00  1.20000000E+00  1.20000000E+00
  1.50000000E+00  1.20000000E+00  1.20000000E+00  1.50000000E+00  1.20000000E+00
  1.20000000E+00  1.50000000E+00  1.20000000E+00  1.20000000E+00  1.50000000E+00
  1.20000000E+00  1.20000000E+00  1.50000000E+00  1.20000000E+00  1.20000000E+00
  1.50000000E+00  1.20000000E+00  1.20000000E+00  1.50000000E+00  1.20000000E+00
  1.20000000E+00  1.50000000E+00  1.20000000E+00  1.20000000E+00  1.50000000E+00
  1.20000000E+00  1.20000000E+00  1.50000000E+00  1.20000000E+00  1.20000000E+00
  1.50000000E+00  1.20000000E+00  1.20000000E+00  1.50000000E+00  1.20000000E+00
  1.20000000E+00  1.50000000E+00  1.20000000E+00  1.20000000E+00  1.50000000E+00
  1.20000000E+00  1.20000000E+00  1.50000000E+00  1.20000000E+00  1.20000000E+00
  1.50000000E+00  1.20000000E+00  1.20000000E+00  1.50000000E+00  1.20000000E+00
  1.20000000E+00  1.50000000E+00  1.20000000E+00  1.20000000E+00  1.50000000E+00
  1.20000000E+00  1.20000000E+00  1.50000000E+00  1.20000000E+00  1.20000000E+00
  1.50000000E+00  1.20000000E+00  1.20000000E+00  1.50000000E+00  1.20000000E+00
  1.20000000E+00  1.50000000E+00  1.20000000E+00  1.20000000E+00  1.50000000E+00
  1.20000000E+00  1.20000000E+00  1.50000000E+00  1.20000000E+00  1.20000000E+00
  1.50000000E+00  1.20000000E+00  1.20000000E+00  1.50000000E+00  1.20000000E+00
  1.20000000E+00  1.50000000E+00  1.20000000E+00  1.20000000E+00  1.50000000E+00
  1.20000000E+00  1.20000000E+00  1.50000000E+00  1.20000000E+00  1.20000000E+00
  1.50000000E+00  1.20000000E+00  1.20000000E+00  1.50000000E+00  1.20000000E+00
  1.20000000E+00  1.50000000E+00  1.20000000E+00  1.20000000E+00  1.50000000E+00
  1.20000000E+00  1.20000000E+00  1.50000000E+00  1.20000000E+00  1.20000000E+00
  1.50000000E+00  1.20000000E+00  1.20000000E+00  1.50000000E+00  1.20000000E+00
  1.20000000E+00  1.50000000E+00  1.20000000E+00  1.20000000E+00  1.50000000E+00
  1.20000000E+00  1.20000000E+00  1.50000000E+00  1.20000000E+00  1.20000000E+00
  1.50000000E+00  1.20000000E+00  1.20000000E+00  1.50000000E+00  1.20000000E+00
  1.20000000E+00  1.50000000E+00  1.20000000E+00  1.20000000E+00  1.50000000E+00
  1.20000000E+00  1.20000000E+00  1.50000000E+00  1.20000000E+00  1.20000000E+00
  1.50000000E+00  1.20000000E+00  1.20000000E+00  1.50000000E+00  1.20000000E+00
  1.20000000E+00  1.50000000E+00  1.20000000E+00  1.20000000E+00  1.50000000E+00
  1.20000000E+00  1.20000000E+00  1.50000000E+00  1.20000000E+00  1.20000000E+00
  1.50000000E+00  1.20000000E+00  1.20000000E+00  1.50000000E+00  1.20000000E+00
  1.20000000E+00  1.50000000E+00  1.20000000E+00  1.20000000E+00  1.50000000E+00
  1.20000000E+00  1.20000000E+00  1.50000000E+00  1.20000000E+00  1.20000000E+00
  1.50000000E+00  1.20000000E+00  1.20000000E+00  1.50000000E+00  1.20000000E+00
  1.20000000E+00  1.50000000E+00  1.20000000E+00  1.20000000E+00  1.50000000E+00
  1.20000000E+00  1.20000000E+00  1.50000000E+00  1.20000000E+00  1.20000000E+00
  1.50000000E+00  1.20000000E+00  1.20000000E+00  1.50000000E+00  1.20000000E+00
  1.20000000E+00  1.50000000E+00  1.20000000E+00  1.20000000E+00  1.50000000E+00
  1.20000000E+00  1.20000000E+00  1.50000000E+00  1.20000000E+00  1.20000000E+00
  1.50000000E+00  1.20000000E+00  1.20000000E+00  1.50000000E+00  1.20000000E+00
  1.20000000E+00  1.50000000E+00  1.20000000E+00  1.20000000E+00  1.50000000E+00
  1.20000000E+00  1.20000000E+00  1.50000000E+00  1.20000000E+00  1.20000000E+00
  1.50000000E+00  1.20000000E+00  1.20000000E+00  1.50000000E+00  1.20000000E+00
  1.20000000E+00  1.50000000E+00  1.20000000E+00  1.20000000E+00  1.50000000E+00
  1.20000000E+00  1.20000000E+00  1.50000000E+00  1.20000000E+00  1.20000000E+00
  1.50000000E+00  1.20000000E+00  1.20000000E+00  1.50000000E+00  1.20000000E+00
  1.20000000E+00  1.50000000E+00  1.20000000E+00  1.20000000E+00  1.50000000E+00
  1.20000000E+00  1.20000000E+00  1.50000000E+00  1.20000000E+00  1.20000000E+00
  1.50000000E+00  1.20000000E+00  1.20000000E+00  1.50000000E+00  1.20000000E+00
  1.20000000E+00  1.50000000E+00  1.20000000E+00  1.20000000E+00  1.50000000E+00
  1.20000000E+00  1.20000000E+00  1.50000000E+00  1.20000000E+00  1.20000000E+00
  1.50000000E+00  1.20000000E+00  1.20000000E+00  1.50000000E+00  1.20000000E+00
  1.20000000E+00  1.50000000E+00  1.20000000E+00  1.20000000E+00  1.50000000E+00
  1.20000000E+00  1.20000000E+00  1.50000000E+00  1.20000000E+00  1.20000000E+00
  1.50000000E+00  1.20000000E+00  1.20000000E+00  1.50000000E+00  1.20000000E+00
  1.20000000E+00  1.50000000E+00  1.20000000E+00  1.20000000E+00  1.50000000E+00
  1.20000000E+00  1.20000000E+00  1.50000000E+00  1.20000000E+00  1.20000000E+00
  1.50000000E+00  1.20000000E+00  1.20000000E+00  1.50000000E+00  1.20000000E+00
  1.20000000E+00  1.50000000E+00  1.20000000E+00  1.20000000E+00  1.50000000E+00
  1.20000000E+00  1.20000000E+00  1.50000000E+00  1.20000000E+00  1.20000000E+00
  1.50000000E+00  1.20000000E+00  1.20000000E+00  1.50000000E+00  1.20000000E+00
  1.20000000E+00  1.50000000E+00  1.20000000E+00  1.20000000E+00  1.50000000E+00
  1.20000000E+00  1.20000000E+00  1.50000000E+00  1.20000000E+00  1.20000000E+00
  1.50000000E+00  1.20000000E+00  1.20000000E+00  1.50000000E+00  1.20000000E+00
  1.20000000E+00  1.50000000E+00  1.20000000E+00  1.20000000E+00  1.50000000E+00
  1.20000000E+00  1.20000000E+00  1.50000000E+00  1.20000000E+00  1.20000000E+00
  1.50000000E+00  1.20000000E+00  1.20000000E+00  1.50000000E+00  1.20000000E+00
  1.20000000E+00  1.50000000E+00  1.20000000E+00  1.20000000E+00  1.50000000E+00
  1.20000000E+00  1.20000000E+00  1.50000000E+00  1.20000000E+00  1.20000000E+00
  1.50000000E+00  1.20000000E+00  1.20000000E+00  1.50000000E+00  1.20000000E+00
  1.20000000E+00  1.50000000E+00  1.20000000E+00  1.20000000E+00  1.50000000E+00
  1.20000000E+00  1.20000000E+00  1.50000000E+00  1.20000000E+00  1.20000000E+00
  1.50000000E+00  1.20000000E+00  1.20000000E+00  1.50000000E+00  1.20000000E+00
  1.20000000E+00  1.50000000E+00  1.20000000E+00  1.20000000E+00  1.50000000E+00
  1.20000000E+00  1.20000000E+00  1.50000000E+00  1.20000000E+00  1.20000000E+00
  1.50000000E+00  1.20000000E+00  1.20000000E+00  1.50000000E+00  1.20000000E+00
  1.20000000E+00  1.50000000E+00  1.20000000E+00  1.20000000E+00  1.50000000E+00
  1.20000000E+00  1.20000000E+00  1.50000000E+00  1.20000000E+00  1.20000000E+00
  1.50000000E+00  1.20000000E+00  1.20000000E+00  1.50000000E+00  1.20000000E+00
  1.20000000E+00  1.50000000E+00  1.20000000E+00  1.20000000E+00  1.50000000E+00
  1.20000000E+00  1.20000000E+00  1.50000000E+00  1.20000000E+00  1.20000000E+00
  1.50000000E+00  1.20000000E+00  1.20000000E+00  1.50000000E+00  1.20000000E+00
  1.20000000E+00  1.50000000E+00  1.20000000E+00  1.20000000E+00  1.50000000E+00
  1.20000000E+00  1.20000000E+00  1.50000000E+00  1.20000000E+00  1.20000000E+00
  1.50000000E+00  1.20000000E+00  1.20000000E+00  1.50000000E+00  1.20000000E+00
  1.20000000E+00  1.50000000E+00  1.20000000E+00  1.20000000E+00  1.50000000E+00
  1.20000000E+00  1.20000000E+00  1.50000000E+00  1.20000000E+00  1.20000000E+00
  1.50000000E+00  1.20000000E+00  1.20000000E+00  1.50000000E+00  1.20000000E+00
  1.20000000E+00  1.50000000E+00  1.20000000E+00  1.20000000E+00  1.50000000E+00
  1.20000000E+00  1.20000000E+00  1.50000000E+00  1.20000000E+00  1.20000000E+00
  1.50000000E+00  1.20000000E+00  1.20000000E+00  1.50000000E+00  1.20000000E+00
  1.20000000E+00  1.50000000E+00  1.20000000E+00  1.20000000E+00  1.50000000E+00
  1.20000000E+00  1.20000000E+00  1.50000000E+00  1.20000000E+00  1.20000000E+00
  1.50000000E+00  1.20000000E+00  1.20000000E+00  1.50000000E+00  1.20000000E+00
  1.20000000E+00  1.50000000E+00  1.20000000E+00  1.20000000E+00  1.50000000E+00
  1.20000000E+00  1.20000000E+00  1.50000000E+00  1.20000000E+00  1.20000000E+00
  1.50000000E+00  1.20000000E+00  1.20000000E+00  1.50000000E+00  1.20000000E+00
  1.20000000E+00  1.50000000E+00  1.20000000E+00  1.20000000E+00  1.50000000E+00
  1.20000000E+00  1.20000000E+00  1.50000000E+00  1.20000000E+00  1.20000000E+00
  1.50000000E+00  1.20000000E+00  1.20000000E+00  1.50000000E+00  1.20000000E+00
  1.20000000E+00  1.50000000E+00  1.20000000E+00  1.20000000E+00  1.50000000E+00
  1.20000000E+00  1.20000000E+00  1.50000000E+00  1.20000000E+00  1.20000000E+00
  1.50000000E+00  1.20000000E+00  1.20000000E+00  1.50000000E+00  1.20000000E+00
  1.20000000E+00  1.50000000E+00  1.20000000E+00  1.20000000E+00  1.50000000E+00
  1.20000000E+00  1.20000000E+00  1.50000000E+00  1.20000000E+00  1.20000000E+00
  1.50000000E+00  1.20000000E+00  1.20000000E+00  1.50000000E+00  1.20000000E+00
  1.20000000E+00  1.50000000E+00  1.20000000E+00  1.20000000E+00  1.50000000E+00
  1.20000000E+00  1.20000000E+00  1.50000000E+00  1.20000000E+00  1.20000000E+00
  1.50000000E+00  1.20000000E+00  1.20000000E+00  1.50000000E+00  1.20000000E+00
  1.20000000E+00  1.50000000E+00  1.20000000E+00  1.20000000E+00  1.50000000E+00
  1.20000000E+00  1.20000000E+00  1.50000000E+00  1.20000000E+00  1.20000000E+00
  1.50000000E+00  1.20000000E+00  1.20000000E+00  1.50000000E+00  1.20000000E+00
  1.20000000E+00  1.50000000E+00  1.20000000E+00  1.20000000E+00  1.50000000E+00
  1.20000000E+00  1.20000000E+00  1.50000000E+00  1.20000000E+00  1.20000000E+00
  1.50000000E+00  1.20000000E+00  1.20000000E+00  1.50000000E+00  1.20000000E+00
  1.20000000E+00  1.50000000E+00  1.20000000E+00  1.20000000E+00  1.50000000E+00
  1.20000000E+00  1.20000000E+00  1.50000000E+00  1.20000000E+00  1.20000000E+00
  1.50000000E+00  1.20000000E+00  1.20000000E+00  1.50000000E+00  1.20000000E+00
  1.20000000E+00  1.50000000E+00  1.20000000E+00  1.20000000E+00  1.50000000E+00
  1.20000000E+00  1.20000000E+00  1.50000000E+00  1.20000000E+00  1.20000000E+00
  1.50000000E+00  1.20000000E+00  1.20000000E+00  1.50000000E+00  1.20000000E+00
  1.20000000E+00  1.50000000E+00  1.20000000E+00  1.20000000E+00  1.50000000E+00
  1.20000000E+00  1.20000000E+00  1.50000000E+00  1.20000000E+00  1.20000000E+00
  1.50000000E+00  1.20000000E+00  1.20000000E+00  1.50000000E+00  1.20000000E+00
  1.20000000E+00  1.50000000E+00  1.20000000E+00  1.20000000E+00  1.50000000E+00
  1.20000000E+00  1.20000000E+00  1.50000000E+00  1.20000000E+00  1.20000000E+00
  1.50000000E+00  1.20000000E+00  1.20000000E+00  1.50000000E+00  1.20000000E+00
  1.20000000E+00  1.50000000E+00  1.20000000E+00  1.20000000E+00  1.50000000E+00
  1.20000000E+00  1.20000000E+00  1.50000000E+00  1.20000000E+00  1.20000000E+00
  1.50000000E+00  1.20000000E+00  1.20000000E+00  1.50000000E+00  1.20000000E+00
  1.20000000E+00  1.50000000E+00  1.20000000E+00  1.20000000E+00  1.50000000E+00
  1.20000000E+00  1.20000000E+00  1.50000000E+00  1.20000000E+00  1.20000000E+00
  1.50000000E+00  1.20000000E+00  1.20000000E+00  1.50000000E+00  1.20000000E+00
  1.20000000E+00  1.50000000E+00  1.20000000E+00  1.20000000E+00  1.50000000E+00
  1.20000000E+00  1.20000000E+00  1.50000000E+00  1.20000000E+00  1.20000000E+00
  1.50000000E+00  1.20000000E+00  1.20000000E+00  1.50000000E+00  1.20000000E+00
  1.20000000E+00  1.50000000E+00  1.20000000E+00  1.20000000E+00  1.50000000E+00
  1.20000000E+00  1.20000000E+00  1.50000000E+00  1.20000000E+00  1.20000000E+00
  1.50000000E+00  1.20000000E+00  1.20000000E+00  1.50000000E+00  1.20000000E+00
  1.20000000E+00  1.50000000E+00  1.20000000E+00  1.20000000E+00  1.50000000E+00
  1.20000000E+00  1.20000000E+00  1.50000000E+00  1.20000000E+00  1.20000000E+00
  1.50000000E+00  1.20000000E+00  1.20000000E+00  1.50000000E+00  1.20000000E+00
  1.20000000E+00  1.50000000E+00  1.20000000E+00  1.20000000E+00  1.50000000E+00
  1.20000000E+00  1.20000000E+00  1.50000000E+00  1.20000000E+00  1.20000000E+00
  1.50000000E+00  1.20000000E+00  1.20000000E+00  1.50000000E+00  1.20000000E+00
  1.20000000E+00  1.50000000E+00  1.20000000E+00  1.20000000E+00  1.50000000E+00
  1.20000000E+00  1.20000000E+00  1.50000000E+00  1.20000000E+00  1.20000000E+00
  1.50000000E+00  1.20000000E+00  1.20000000E+00  1.50000000E+00  1.20000000E+00
  1.20000000E+00  1.50000000E+00  1.20000000E+00  1.20000000E+00  1.50000000E+00
  1.20000000E+00  1.20000000E+00  1.50000000E+00  1.20000000E+00  1.20000000E+00
  1.50000000E+00  1.20000000E+00  1.20000000E+00  1.50000000E+00  1.20000000E+00
  1.20000000E+00  1.50000000E+00  1.20000000E+00  1.20000000E+00  1.50000000E+00
  1.20000000E+00  1.20000000E+00  1.50000000E+00  1.20000000E+00  1.20000000E+00
  1.50000000E+00  1.20000000E+00  1.20000000E+00  1.50000000E+00  1.20000000E+00
  1.20000000E+00  1.50000000E+00  1.20000000E+00  1.20000000E+00  1.50000000E+00
  1.20000000E+00  1.20000000E+00  1.50000000E+00  1.20000000E+00  1.20000000E+00
  1.50000000E+00  1.20000000E+00  1.20000000E+00  1.50000000E+00  1.20000000E+00
  1.20000000E+00  1.50000000E+00  1.20000000E+00  1.20000000E+00  1.50000000E+00
  1.20000000E+00  1.20000000E+00  1.50000000E+00  1.20000000E+00  1.20000000E+00
  1.50000000E+00  1.20000000E+00  1.20000000E+00  1.50000000E+00  1.20000000E+00
  1.20000000E+00  1.50000000E+00  1.20000000E+00  1.20000000E+00  1.50000000E+00
  1.20000000E+00  1.20000000E+00  1.50000000E+00  1.20000000E+00  1.20000000E+00
  1.50000000E+00  1.20000000E+00  1.20000000E+00  1.50000000E+00  1.20000000E+00
  1.20000000E+00  1.50000000E+00  1.20000000E+00  1.20000000E+00  1.50000000E+00
  1.20000000E+00  1.20000000E+00  1.50000000E+00  1.20000000E+00  1.20000000E+00
  1.50000000E+00  1.20000000E+00  1.20000000E+00  1.50000000E+00  1.20000000E+00
  1.20000000E+00  1.50000000E+00  1.20000000E+00  1.20000000E+00  1.50000000E+00
  1.20000000E+00  1.20000000E+00  1.50000000E+00  1.20000000E+00  1.20000000E+00
  1.50000000E+00  1.20000000E+00  1.20000000E+00  1.50000000E+00  1.20000000E+00
  1.20000000E+00  1.50000000E+00  1.20000000E+00  1.20000000E+00  1.50000000E+00
  1.20000000E+00  1.20000000E+00  1.50000000E+00  1.20000000E+00  1.20000000E+00
  1.50000000E+00  1.20000000E+00  1.20000000E+00  1.50000000E+00  1.20000000E+00
  1.20000000E+00  1.50000000E+00  1.20000000E+00  1.20000000E+00  1.50000000E+00
  1.20000000E+00  1.20000000E+00  1.50000000E+00  1.20000000E+00  1.20000000E+00
  1.50000000E+00  1.20000000E+00  1.20000000E+00  1.50000000E+00  1.20000000E+00
  1.20000000E+00  1.50000000E+00  1.20000000E+00  1.20000000E+00  1.50000000E+00
  1.20000000E+00  1.20000000E+00  1.50000000E+00  1.20000000E+00  1.20000000E+00
  1.50000000E+00  1.20000000E+00  1.20000000E+00  1.50000000E+00  1.20000000E+00
  1.20000000E+00  1.50000000E+00  1.20000000E+00  1.20000000E+00  1.50000000E+00
  1.20000000E+00  1.20000000E+00  1.50000000E+00  1.20000000E+00  1.20000000E+00
  1.50000000E+00  1.20000000E+00  1.20000000E+00  1.50000000E+00  1.20000000E+00
  1.20000000E+00  1.50000000E+00  1.20000000E+00  1.20000000E+00  1.50000000E+00
  1.20000000E+00  1.20000000E+00  1.50000000E+00  1.20000000E+00  1.20000000E+00
  1.50000000E+00  1.20000000E+00  1.20000000E+00  1.50000000E+00  1.20000000E+00
  1.20000000E+00  1.50000000E+00  1.20000000E+00  1.20000000E+00  1.50000000E+00
  1.20000000E+00  1.20000000E+00  1.50000000E+00  1.20000000E+00  1.20000000E+00
  1.50000000E+00  1.20000000E+00  1.20000000E+00  1.50000000E+00  1.20000000E+00
  1.20000000E+00  1.50000000E+00  1.20000000E+00  1.20000000E+00  1.50000000E+00
  1.20000000E+00  1.20000000E+00  1.50000000E+00  1.20000000E+00  1.20000000E+00
  1.50000000E+00  1.20000000E+00  1.20000000E+00  1.50000000E+00  1.20000000E+00
  1.20000000E+00  1.50000000E+00  1.20000000E+00  1.20000000E+00  1.50000000E+00
  1.20000000E+00  1.20000000E+00  1.50000000E+00  1.20000000E+00  1.20000000E+00
  1.50000000E+00  1.20000000E+00  1.20000000E+00  1.50000000E+00  1.20000000E+00
  1.20000000E+00  1.50000000E+00  1.20000000E+00  1.20000000E+00  1.50000000E+00
  1.20000000E+00  1.20000000E+00  1.50000000E+00  1.20000000E+00  1.20000000E+00
  1.50000000E+00  1.20000000E+00  1.20000000E+00  1.50000000E+00  1.20000000E+00
  1.20000000E+00  1.50000000E+00  1.20000000E+00  1.20000000E+00  1.50000000E+00
  1.20000000E+00  1.20000000E+00  1.50000000E+00  1.20000000E+00  1.20000000E+00
  1.50000000E+00  1.20000000E+00  1.20000000E+00  1.50000000E+00  1.20000000E+00
  1.20000000E+00  1.50000000E+00  1.20000000E+00  1.20000000E+00  1.50000000E+00
  1.20000000E+00  1.20000000E+00  1.50000000E+00  1.20000000E+00  1.20000000E+00
  1.50000000E+00  1.20000000E+00  1.20000000E+00  1.50000000E+00  1.20000000E+00
  1.20000000E+00  1.50000000E+00  1.20000000E+00  1.20000000E+00  1.50000000E+00
  1.20000000E+00  1.20000000E+00  1.50000000E+00  1.20000000E+00  1.20000000E+00
  1.50000000E+00  1.20000000E+00  1.20000000E+00  1.50000000E+00  1.20000000E+00
  1.20000000E+00  1.50000000E+00  1.20000000E+00  1.20000000E+00  1.50000000E+00
  1.20000000E+00  1.20000000E+00  1.50000000E+00  1.20000000E+00  1.20000000E+00
  1.50000000E+00  1.20000000E+00  1.20000000E+00  1.50000000E+00  1.20000000E+00
  1.20000000E+00  1.50000000E+00  1.20000000E+00  1.20000000E+00  1.50000000E+00
  1.20000000E+00  1.20000000E+00  1.50000000E+00  1.20000000E+00  1.20000000E+00
  1.50000000E+00  1.20000000E+00  1.20000000E+00  1.50000000E+00  1.20000000E+00
  1.20000000E+00  1.50000000E+00  1.20000000E+00  1.20000000E+00  1.50000000E+00
  1.20000000E+00  1.20000000E+00  1.50000000E+00  1.20000000E+00  1.20000000E+00
  1.50000000E+00  1.20000000E+00  1.20000000E+00  1.50000000E+00  1.20000000E+00
  1.20000000E+00  1.50000000E+00  1.20000000E+00  1.20000000E+00  1.50000000E+00
  1.20000000E+00  1.20000000E+00  1.50000000E+00  1.20000000E+00  1.20000000E+00
  1.50000000E+00  1.20000000E+00  1.20000000E+00  1.50000000E+00  1.20000000E+00
  1.20000000E+00  1.50000000E+00  1.20000000E+00  1.20000000E+00  1.50000000E+00
  1.20000000E+00  1.20000000E+00  1.50000000E+00  1.20000000E+00  1.20000000E+00
  1.50000000E+00  1.20000000E+00  1.20000000E+00  1.50000000E+00  1.20000000E+00
  1.20000000E+00  1.50000000E+00  1.20000000E+00  1.20000000E+00  1.50000000E+00
  1.20000000E+00  1.20000000E+00  1.50000000E+00  1.20000000E+00  1.20000000E+00
  1.50000000E+00  1.20000000E+00  1.20000000E+00  1.50000000E+00  1.20000000E+00
  1.20000000E+00  1.50000000E+00  1.20000000E+00  1.20000000E+00  1.50000000E+00
  1.20000000E+00  1.20000000E+00  1.50000000E+00  1.20000000E+00  1.20000000E+00
  1.50000000E+00  1.20000000E+00  1.20000000E+00  1.50000000E+00  1.20000000E+00
  1.20000000E+00  1.50000000E+00  1.20000000E+00  1.20000000E+00  1.50000000E+00
  1.20000000E+00  1.20000000E+00  1.50000000E+00  1.20000000E+00  1.20000000E+00
  1.50000000E+00  1.20000000E+00  1.20000000E+00  1.50000000E+00  1.20000000E+00
  1.20000000E+00  1.50000000E+00  1.20000000E+00  1.20000000E+00  1.50000000E+00
  1.20000000E+00  1.20000000E+00  1.50000000E+00  1.20000000E+00  1.20000000E+00
  1.50000000E+00  1.20000000E+00  1.20000000E+00  1.50000000E+00  1.20000000E+00
  1.20000000E+00  1.50000000E+00  1.20000000E+00  1.20000000E+00  1.50000000E+00
  1.20000000E+00  1.20000000E+00  1.50000000E+00  1.20000000E+00  1.20000000E+00
  1.50000000E+00  1.20000000E+00  1.20000000E+00  1.50000000E+00  1.20000000E+00
  1.20000000E+00  1.50000000E+00  1.20000000E+00  1.20000000E+00  1.50000000E+00
  1.20000000E+00  1.20000000E+00  1.50000000E+00  1.20000000E+00  1.20000000E+00
  1.50000000E+00  1.20000000E+00  1.20000000E+00  1.50000000E+00  1.20000000E+00
  1.20000000E+00  1.50000000E+00  1.20000000E+00  1.20000000E+00  1.50000000E+00
  1.20000000E+00  1.20000000E+00  1.50000000E+00  1.20000000E+00  1.20000000E+00
  1.50000000E+00  1.20000000E+00  1.20000000E+00  1.50000000E+00  1.20000000E+00
  1.20000000E+00  1.50000000E+00  1.20000000E+00  1.20000000E+00  1.50000000E+00
  1.20000000E+00  1.20000000E+00  1.50000000E+00  1.20000000E+00  1.20000000E+00
  1.50000000E+00  1.20000000E+00  1.20000000E+00  1.50000000E+00  1.20000000E+00
  1.20000000E+00  1.50000000E+00  1.20000000E+00  1.20000000E+00  1.50000000E+00
  1.20000000E+00  1.20000000E+00  1.50000000E+00  1.20000000E+00  1.20000000E+00
  1.50000000E+00  1.20000000E+00  1.20000000E+00  1.50000000E+00  1.20000000E+00
  1.20000000E+00  1.50000000E+00  1.20000000E+00  1.20000000E+00  1.50000000E+00
  1.20000000E+00  1.20000000E+00  1.50000000E+00  1.20000000E+00  1.20000000E+00
  1.50000000E+00  1.20000000E+00  1.20000000E+00  1.50000000E+00  1.20000000E+00
  1.20000000E+00  1.50000000E+00  1.20000000E+00  1.20000000E+00  1.50000000E+00
  1.20000000E+00  1.20000000E+00  1.50000000E+00  1.20000000E+00  1.20000000E+00
  1.50000000E+00  1.20000000E+00  1.20000000E+00  1.50000000E+00  1.20000000E+00
  1.20000000E+00  1.50000000E+00  1.20000000E+00  1.20000000E+00  1.50000000E+00
  1.20000000E+00  1.20000000E+00  1.50000000E+00  1.20000000E+00  1.20000000E+00
  1.50000000E+00  1.20000000E+00  1.20000000E+00  1.50000000E+00  1.20000000E+00
  1.20000000E+00  1.50000000E+00  1.20000000E+00  1.20000000E+00  1.50000000E+00
  1.20000000E+00  1.20000000E+00  1.50000000E+00  1.20000000E+00  1.20000000E+00
  1.50000000E+00  1.20000000E+00  1.20000000E+00  1.50000000E+00  1.20000000E+00
  1.20000000E+00  1.50000000E+00  1.20000000E+00  1.20000000E+00  1.50000000E+00
  1.20000000E+00  1.20000000E+00  1.50000000E+00  1.20000000E+00  1.20000000E+00
  1.50000000E+00  1.20000000E+00  1.20000000E+00  1.50000000E+00  1.20000000E+00
  1.20000000E+00  1.50000000E+00  1.20000000E+00  1.20000000E+00  1.50000000E+00
  1.20000000E+00  1.20000000E+00  1.50000000E+00  1.20000000E+00  1.20000000E+00
  1.50000000E+00  1.20000000E+00  1.20000000E+00  1.50000000E+00  1.20000000E+00
  1.20000000E+00  1.50000000E+00  1.20000000E+00  1.20000000E+00  1.50000000E+00
  1.20000000E+00  1.20000000E+00  1.50000000E+00  1.20000000E+00  1.20000000E+00
  1.50000000E+00  1.20000000E+00  1.20000000E+00  1.50000000E+00  1.20000000E+00
  1.20000000E+00  1.50000000E+00  1.20000000E+00  1.20000000E+00  1.50000000E+00
  1.20000000E+00  1.20000000E+00  1.50000000E+00  1.20000000E+00  1.20000000E+00
  1.50000000E+00  1.20000000E+00  1.20000000E+00  1.50000000E+00  1.20000000E+00
  1.20000000E+00  1.50000000E+00  1.20000000E+00  1.20000000E+00  1.50000000E+00
  1.20000000E+00  1.20000000E+00  1.50000000E+00  1.20000000E+00  1.20000000E+00
  1.50000000E+00  1.20000000E+00  1.20000000E+00  1.50000000E+00  1.20000000E+00
  1.20000000E+00  1.50000000E+00  1.20000000E+00  1.20000000E+00  1.50000000E+00
  1.20000000E+00  1.20000000E+00  1.50000000E+00  1.20000000E+00  1.20000000E+00
  1.50000000E+00  1.20000000E+00  1.20000000E+00  1.50000000E+00  1.20000000E+00
  1.20000000E+00  1.50000000E+00  1.20000000E+00  1.20000000E+00  1.50000000E+00
  1.20000000E+00  1.20000000E+00  1.50000000E+00  1.20000000E+00  1.20000000E+00
  1.50000000E+00  1.20000000E+00  1.20000000E+00  1.50000000E+00  1.20000000E+00
  1.20000000E+00  1.50000000E+00  1.20000000E+00  1.20000000E+00  1.50000000E+00
  1.20000000E+00  1.20000000E+00  1.50000000E+00  1.20000000E+00  1.20000000E+00
  1.50000000E+00  1.20000000E+00  1.20000000E+00  1.50000000E+00  1.20000000E+00
  1.20000000E+00  1.50000000E+00  1.20000000E+00  1.20000000E+00  1.50000000E+00
  1.20000000E+00  1.20000000E+00  1.50000000E+00  1.20000000E+00  1.20000000E+00
  1.50000000E+00  1.20000000E+00  1.20000000E+00  1.50000000E+00  1.20000000E+00
  1.20000000E+00  1.50000000E+00  1.20000000E+00  1.20000000E+00  1.50000000E+00
  1.20000000E+00  1.20000000E+00  1.50000000E+00  1.20000000E+00  1.20000000E+00
  1.50000000E+00  1.20000000E+00  1.20000000E+00  1.50000000E+00  1.20000000E+00
  1.20000000E+00  1.50000000E+00  1.20000000E+00  1.20000000E+00  1.50000000E+00
  1.20000000E+00  1.20000000E+00  1.50000000E+00  1.20000000E+00  1.20000000E+00
  1.50000000E+00  1.20000000E+00  1.20000000E+00  1.50000000E+00  1.20000000E+00
  1.20000000E+00  1.50000000E+00  1.20000000E+00  1.20000000E+00  1.50000000E+00
  1.20000000E+00  1.20000000E+00  1.50000000E+00  1.20000000E+00  1.20000000E+00
  1.50000000E+00  1.20000000E+00  1.20000000E+00  1.50000000E+00  1.20000000E+00
  1.20000000E+00  1.50000000E+00  1.20000000E+00  1.20000000E+00  1.50000000E+00
  1.20000000E+00  1.20000000E+00  1.50000000E+00  1.20000000E+00  1.20000000E+00
  1.50000000E+00  1.20000000E+00  1.20000000E+00  1.50000000E+00  1.20000000E+00
  1.20000000E+00  1.50000000E+00  1.20000000E+00  1.20000000E+00  1.50000000E+00
  1.20000000E+00  1.20000000E+00  1.50000000E+00  1.20000000E+00  1.20000000E+00
  1.50000000E+00  1.20000000E+00  1.20000000E+00  1.50000000E+00  1.20000000E+00
  1.20000000E+00  1.50000000E+00  1.20000000E+00  1.20000000E+00  1.50000000E+00
  1.20000000E+00  1.20000000E+00  1.50000000E+00  1.20000000E+00  1.20000000E+00
  1.50000000E+00  1.20000000E+00  1.20000000E+00  1.50000000E+00  1.20000000E+00
  1.20000000E+00  1.50000000E+00  1.20000000E+00  1.20000000E+00  1.50000000E+00
  1.20000000E+00  1.20000000E+00  1.50000000E+00  1.20000000E+00  1.20000000E+00
  1.50000000E+00  1.20000000E+00  1.20000000E+00  1.50000000E+00  1.20000000E+00
  1.20000000E+00  1.50000000E+00  1.20000000E+00  1.20000000E+00  1.50000000E+00
  1.20000000E+00  1.20000000E+00  1.50000000E+00  1.20000000E+00  1.20000000E+00
  1.50000000E+00  1.20000000E+00  1.20000000E+00  1.50000000E+00  1.20000000E+00
  1.20000000E+00  1.50000000E+00  1.20000000E+00  1.20000000E+00  1.50000000E+00
  1.20000000E+00  1.20000000E+00  1.50000000E+00  1.20000000E+00  1.20000000E+00
  1.50000000E+00  1.20000000E+00  1.20000000E+00  1.50000000E+00  1.20000000E+00
  1.20000000E+00  1.50000000E+00  1.20000000E+00  1.20000000E+00  1.50000000E+00
  1.20000000E+00  1.20000000E+00  1.50000000E+00  1.20000000E+00  1.20000000E+00
  1.50000000E+00  1.20000000E+00  1.20000000E+00  1.50000000E+00  1.20000000E+00
  1.20000000E+00  1.50000000E+00  1.20000000E+00  1.20000000E+00  1.50000000E+00
  1.20000000E+00  1.20000000E+00  1.50000000E+00  1.20000000E+00  1.20000000E+00
  1.50000000E+00  1.20000000E+00  1.20000000E+00  1.50000000E+00  1.20000000E+00
  1.20000000E+00  1.50000000E+00  1.20000000E+00  1.20000000E+00  1.50000000E+00
  1.20000000E+00  1.20000000E+00  1.50000000E+00  1.20000000E+00  1.20000000E+00
  1.50000000E+00  1.20000000E+00  1.20000000E+00  1.50000000E+00  1.20000000E+00
  1.20000000E+00  1.50000000E+00  1.20000000E+00  1.20000000E+00  1.50000000E+00
  1.20000000E+00  1.20000000E+00  1.50000000E+00  1.20000000E+00  1.20000000E+00
  1.50000000E+00  1.20000000E+00  1.20000000E+00  1.50000000E+00  1.20000000E+00
  1.20000000E+00  1.50000000E+00  1.20000000E+00  1.20000000E+00  1.50000000E+00
  1.20000000E+00  1.20000000E+00  1.50000000E+00  1.20000000E+00  1.20000000E+00
  1.50000000E+00  1.20000000E+00  1.20000000E+00  1.50000000E+00  1.20000000E+00
  1.20000000E+00  1.50000000E+00  1.20000000E+00  1.20000000E+00  1.50000000E+00
  1.20000000E+00  1.20000000E+00  1.50000000E+00  1.20000000E+00  1.20000000E+00
  1.50000000E+00  1.20000000E+00  1.20000000E+00  1.50000000E+00  1.20000000E+00
  1.20000000E+00  1.50000000E+00  1.20000000E+00  1.20000000E+00  1.50000000E+00
  1.20000000E+00  1.20000000E+00  1.50000000E+00  1.20000000E+00  1.20000000E+00
  1.50000000E+00  1.20000000E+00  1.20000000E+00  1.50000000E+00  1.20000000E+00
  1.20000000E+00  1.50000000E+00  1.20000000E+00  1.20000000E+00  1.50000000E+00
  1.20000000E+00  1.20000000E+00  1.50000000E+00  1.20000000E+00  1.20000000E+00
  1.50000000E+00  1.20000000E+00  1.20000000E+00  1.50000000E+00  1.20000000E+00
  1.20000000E+00  1.50000000E+00  1.20000000E+00  1.20000000E+00  1.50000000E+00
  1.20000000E+00  1.20000000E+00  1.50000000E+00  1.20000000E+00  1.20000000E+00
  1.50000000E+00  1.20000000E+00  1.20000000E+00  1.50000000E+00  1.20000000E+00
  1.20000000E+00  1.50000000E+00  1.20000000E+00  1.20000000E+00  1.50000000E+00
  1.20000000E+00  1.20000000E+00  1.50000000E+00  1.20000000E+00  1.20000000E+00
  1.50000000E+00  1.20000000E+00  1.20000000E+00  1.50000000E+00  1.20000000E+00
  1.20000000E+00  1.50000000E+00  1.20000000E+00  1.20000000E+00  1.50000000E+00
  1.20000000E+00  1.20000000E+00  1.50000000E+00  1.20000000E+00  1.20000000E+00
  1.50000000E+00  1.20000000E+00  1.20000000E+00  1.50000000E+00  1.20000000E+00
  1.20000000E+00  1.50000000E+00  1.20000000E+00  1.20000000E+00  1.50000000E+00
  1.20000000E+00  1.20000000E+00  1.50000000E+00  1.20000000E+00  1.20000000E+00
  1.50000000E+00  1.20000000E+00  1.20000000E+00  1.50000000E+00  1.20000000E+00
  1.20000000E+00  1.50000000E+00  1.20000000E+00  1.20000000E+00  1.50000000E+00
  1.20000000E+00  1.20000000E+00  1.50000000E+00  1.20000000E+00  1.20000000E+00
  1.50000000E+00  1.20000000E+00  1.20000000E+00  1.50000000E+00  1.20000000E+00
  1.20000000E+00  1.50000000E+00  1.20000000E+00  1.20000000E+00  1.50000000E+00
  1.20000000E+00  1.20000000E+00  1.50000000E+00  1.20000000E+00  1.20000000E+00
  1.50000000E+00  1.20000000E+00  1.20000000E+00  1.50000000E+00  1.20000000E+00
  1.20000000E+00  1.50000000E+00  1.20000000E+00  1.20000000E+00  1.50000000E+00
  1.20000000E+00  1.20000000E+00  1.50000000E+00  1.20000000E+00  1.20000000E+00
  1.50000000E+00  1.20000000E+00  1.20000000E+00  1.50000000E+00  1.20000000E+00
  1.20000000E+00  1.50000000E+00  1.20000000E+00  1.20000000E+00  1.50000000E+00
  1.20000000E+00  1.20000000E+00  1.50000000E+00  1.20000000E+00  1.20000000E+00
  1.50000000E+00  1.20000000E+00  1.20000000E+00  1.50000000E+00  1.20000000E+00
  1.20000000E+00  1.50000000E+00  1.20000000E+00  1.20000000E+00  1.50000000E+00
  1.20000000E+00  1.20000000E+00  1.50000000E+00  1.20000000E+00  1.20000000E+00
  1.50000000E+00  1.20000000E+00  1.20000000E+00  1.50000000E+00  1.20000000E+00
  1.20000000E+00  1.50000000E+00  1.20000000E+00  1.20000000E+00  1.50000000E+00
  1.20000000E+00  1.20000000E+00  1.50000000E+00  1.20000000E+00  1.20000000E+00
  1.50000000E+00  1.20000000E+00  1.20000000E+00  1.50000000E+00  1.20000000E+00
  1.20000000E+00  1.50000000E+00  1.20000000E+00  1.20000000E+00  1.50000000E+00
  1.20000000E+00  1.20000000E+00  1.50000000E+00  1.20000000E+00  1.20000000E+00
  1.50000000E+00  1.20000000E+00  1.20000000E+00  1.50000000E+00  1.20000000E+00
  1.20000000E+00  1.50000000E+00  1.20000000E+00  1.20000000E+00  1.50000000E+00
  1.20000000E+00  1.20000000E+00  1.50000000E+00  1.20000000E+00  1.20000000E+00
  1.50000000E+00  1.20000000E+00  1.20000000E+00  1.50000000E+00  1.20000000E+00
  1.20000000E+00  1.50000000E+00  1.20000000E+00  1.20000000E+00  1.50000000E+00
  1.20000000E+00  1.20000000E+00  1.50000000E+00  1.20000000E+00  1.20000000E+00
  1.50000000E+00  1.20000000E+00  1.20000000E+00  1.50000000E+00  1.20000000E+00
  1.20000000E+00  1.50000000E+00  1.20000000E+00  1.20000000E+00  1.50000000E+00
  1.20000000E+00  1.20000000E+00  1.50000000E+00  1.20000000E+00  1.20000000E+00
  1.50000000E+00  1.20000000E+00  1.20000000E+00  1.50000000E+00  1.20000000E+00
  1.20000000E+00  1.50000000E+00  1.20000000E+00  1.20000000E+00  1.50000000E+00
  1.20000000E+00  1.20000000E+00  1.50000000E+00  1.20000000E+00  1.20000000E+00
  1.50000000E+00  1.20000000E+00  1.20000000E+00  1.50000000E+00  1.20000000E+00
  1.20000000E+00  1.50000000E+00  1.20000000E+00  1.20000000E+00  1.50000000E+00
  1.20000000E+00  1.20000000E+00  1.50000000E+00  1.20000000E+00  1.20000000E+00
  1.50000000E+00  1.20000000E+00  1.20000000E+00  1.50000000E+00  1.20000000E+00
  1.20000000E+00  1.50000000E+00  1.20000000E+00  1.20000000E+00  1.50000000E+00
  1.20000000E+00  1.20000000E+00  1.50000000E+00  1.20000000E+00  1.20000000E+00
  1.50000000E+00  1.20000000E+00  1.20000000E+00  1.50000000E+00  1.20000000E+00
  1.20000000E+00  1.50000000E+00  1.20000000E+00  1.20000000E+00  1.50000000E+00
  1.20000000E+00  1.20000000E+00  1.50000000E+00  1.20000000E+00  1.20000000E+00
  1.50000000E+00  1.20000000E+00  1.20000000E+00  1.50000000E+00  1.20000000E+00
  1.20000000E+00  1.50000000E+00  1.20000000E+00  1.20000000E+00  1.50000000E+00
  1.20000000E+00  1.20000000E+00  1.50000000E+00  1.20000000E+00  1.20000000E+00
  1.50000000E+00  1.20000000E+00  1.20000000E+00  1.50000000E+00  1.20000000E+00
  1.20000000E+00  1.50000000E+00  1.20000000E+00  1.20000000E+00  1.50000000E+00
  1.20000000E+00  1.20000000E+00  1.50000000E+00  1.20000000E+00  1.20000000E+00
  1.50000000E+00  1.20000000E+00  1.20000000E+00  1.50000000E+00  1.20000000E+00
  1.20000000E+00  1.50000000E+00  1.20000000E+00  1.20000000E+00  1.50000000E+00
  1.20000000E+00  1.20000000E+00  1.50000000E+00  1.20000000E+00  1.20000000E+00
  1.50000000E+00  1.20000000E+00  1.20000000E+00
%FLAG SCREEN                                                                    
%FORMAT(5E16.8)                                                                 
  7.90000000E-01  8.50000000E-01  8.50000000E-01  8.50000000E-01  7.20000000E-01
  8.50000000E-01  8.50000000E-01  7.20000000E-01  8.50000000E-01  7.90000000E-01
  8.50000000E-01  7.20000000E-01  8.50000000E-01  7.20000000E-01  8.50000000E-01
  8.50000000E-01  7.20000000E-01  7.20000000E-01  8.50000000E-01  7.20000000E-01
  8.50000000E-01  7.20000000E-01  8.50000000E-01  8.50000000E-01  7.20000000E-01
  8.50000000E-01  7.20000000E-01  8.50000000E-01  7.20000000E-01  8.50000000E-01
  7.90000000E-01  8.50000000E-01  7.20000000E-01  8.50000000E-01  7.20000000E-01
  8.50000000E-01  8.50000000E-01  7.20000000E-01  8.50000000E-01  8.50000000E-01
  7.20000000E-01  8.50000000E-01  7.90000000E-01  7.20000000E-01  8.50000000E-01
  8.50000000E-01  7.20000000E-01  8.50000000E-01  8.50000000E-01  7.20000000E-01
  8.50000000E-01  8.50000000E-01  7.20000000E-01  8.50000000E-01  7.20000000E-01
  8.50000000E-01  7.90000000E-01  8.50000000E-01  7.20000000E-01  8.50000000E-01
  7.20000000E-01  8.50000000E-01  8.50000000E-01  7.20000000E-01  8.50000000E-01
  8.50000000E-01  7.20000000E-01  8.50000000E-01  8.50000000E-01  7.20000000E-01
  8.50000000E-01  7.90000000E-01  8.50000000E-01  7.20000000E-01  8.50000000E-01
  7.20000000E-01  8.50000000E-01  7.20000000E-01  8.50000000E-01  8.50000000E-01
  8.50000000E-01  8.50000000E-01  8.50000000E-01  7.20000000E-01  8.50000000E-01
  7.90000000E-01  8.50000000E-01  7.20000000E-01  8.50000000E-01  8.50000000E-01
  7.20000000E-01  8.50000000E-01  7.90000000E-01  8.50000000E-01  7.20000000E-01
  8.50000000E-01  7.20000000E-01  8.50000000E-01  7.20000000E-01  8.50000000E-01
  8.50000000E-01  8.50000000E-01  8.50000000E-01  8.50000000E-01  7.20000000E-01
  8.50000000E-01  7.90000000E-01  8.50000000E-01  7.20000000E-01  8.50000000E-01
  7.20000000E-01  8.50000000E-01  8.50000000E-01  7.20000000E-01  7.20000000E-01
  8.50000000E-01  7.90000000E-01  8.50000000E-01  7.20000000E-01  7.20000000E-01
  8.50000000E-01  7.20000000E-01  8.50000000E-01  7.20000000E-01  8.50000000E-01
  7.20000000E-01  8.50000000E-01  7.20000000E-01  7.20000000E-01  8.50000000E-01
  7.90000000E-01  8.50000000E-01  7.20000000E-01  8.50000000E-01  8.50000000E-01
  7.20000000E-01  8.50000000E-01  8.50000000E-01  8.00000000E-01  8.00000000E-01
  8.50000000E-01  8.50000000E-01  8.50000000E-01  8.50000000E-01  8.50000000E-01
  8.50000000E-01  8.50000000E-01  8.50000000E-01  8.50000000E-01  8.50000000E-01
  8.50000000E-01  8.50000000E-01  8.50000000E-01  8.50000000E-01  8.50000000E-01
  8.50000000E-01  8.50000000E-01  8.50000000E-01  8.50000000E-01  8.50000000E-01
  8.50000000E-01  8.50000000E-01  8.50000000E-01  8.50000000E-01  8.50000000E-01
  8.50000000E-01  8.50000000E-01  8.50000000E-01  8.50000000E-01  8.50000000E-01
  8.50000000E-01  8.50000000E-01  8.50000000E-01  8.50000000E-01  8.50000000E-01
  8.50000000E-01  8.50000000E-01  8.50000000E-01  8.50000000E-01  8.50000000E-01
  8.50000000E-01  8.50000000E-01  8.50000000E-01  8.50000000E-01  8.50000000E-01
  8.50000000E-01  8.50000000E-01  8.50000000E-01  8.50000000E-01  8.50000000E-01
  8.50000000E-01  8.50000000E-01  8.50000000E-01  8.50000000E-01  8.50000000E-01
  8.50000000E-01  8.50000000E-01  8.50000000E-01  8.50000000E-01  8.50000000E-01
  8.50000000E-01  8.50000000E-01  8.50000000E-01  8.50000000E-01  8.50000000E-01
  8.50000000E-01  8.50000000E-01  8.50000000E-01  8.50000000E-01  8.50000000E-01
  8.50000000E-01  8.50000000E-01  8.50000000E-01  8.50000000E-01  8.50000000E-01
  8.50000000E-01  8.50000000E-01  8.50000000E-01  8.50000000E-01  8.50000000E-01
  8.50000000E-01  8.50000000E-01  8.50000000E-01  8.50000000E-01  8.50000000E-01
  8.50000000E-01  8.50000000E-01  8.50000000E-01  8.50000000E-01  8.50000000E-01
  8.50000000E-01  8.50000000E-01  8.50000000E-01  8.50000000E-01  8.50000000E-01
  8.50000000E-01  8.50000000E-01  8.50000000E-01  8.50000000E-01  8.50000000E-01
  8.50000000E-01  8.50000000E-01  8.50000000E-01  8.50000000E-01  8.50000000E-01
  8.50000000E-01  8.50000000E-01  8.50000000E-01  8.50000000E-01  8.50000000E-01
  8.50000000E-01  8.50000000E-01  8.50000000E-01  8.50000000E-01  8.50000000E-01
  8.50000000E-01  8.50000000E-01  8.50000000E-01  8.50000000E-01  8.50000000E-01
  8.50000000E-01  8.50000000E-01  8.50000000E-01  8.50000000E-01  8.50000000E-01
  8.50000000E-01  8.50000000E-01  8.50000000E-01  8.50000000E-01  8.50000000E-01
  8.50000000E-01  8.50000000E-01  8.50000000E-01  8.50000000E-01  8.50000000E-01
  8.50000000E-01  8.50000000E-01  8.50000000E-01  8.50000000E-01  8.50000000E-01
  8.50000000E-01  8.50000000E-01  8.50000000E-01  8.50000000E-01  8.50000000E-01
  8.50000000E-01  8.50000000E-01  8.50000000E-01  8.50000000E-01  8.50000000E-01
  8.50000000E-01  8.50000000E-01  8.50000000E-01  8.50000000E-01  8.50000000E-01
  8.50000000E-01  8.50000000E-01  8.50000000E-01  8.50000000E-01  8.50000000E-01
  8.50000000E-01  8.50000000E-01  8.50000000E-01  8.50000000E-01  8.50000000E-01
  8.50000000E-01  8.50000000E-01  8.50000000E-01  8.50000000E-01  8.50000000E-01
  8.50000000E-01  8.50000000E-01  8.50000000E-01  8.50000000E-01  8.50000000E-01
  8.50000000E-01  8.50000000E-01  8.50000000E-01  8.50000000E-01  8.50000000E-01
  8.50000000E-01  8.50000000E-01  8.50000000E-01  8.50000000E-01  8.50000000E-01
  8.50000000E-01  8.50000000E-01  8.50000000E-01  8.50000000E-01  8.50000000E-01
  8.50000000E-01  8.50000000E-01  8.50000000E-01  8.50000000E-01  8.50000000E-01
  8.50000000E-01  8.50000000E-01  8.50000000E-01  8.50000000E-01  8.50000000E-01
  8.50000000E-01  8.50000000E-01  8.50000000E-01  8.50000000E-01  8.50000000E-01
  8.50000000E-01  8.50000000E-01  8.50000000E-01  8.50000000E-01  8.50000000E-01
  8.50000000E-01  8.50000000E-01  8.50000000E-01  8.50000000E-01  8.50000000E-01
  8.50000000E-01  8.50000000E-01  8.50000000E-01  8.50000000E-01  8.50000000E-01
  8.50000000E-01  8.50000000E-01  8.50000000E-01  8.50000000E-01  8.50000000E-01
  8.50000000E-01  8.50000000E-01  8.50000000E-01  8.50000000E-01  8.50000000E-01
  8.50000000E-01  8.50000000E-01  8.50000000E-01  8.50000000E-01  8.50000000E-01
  8.50000000E-01  8.50000000E-01  8.50000000E-01  8.50000000E-01  8.50000000E-01
  8.50000000E-01  8.50000000E-01  8.50000000E-01  8.50000000E-01  8.50000000E-01
  8.50000000E-01  8.50000000E-01  8.50000000E-01  8.50000000E-01  8.50000000E-01
  8.50000000E-01  8.50000000E-01  8.50000000E-01  8.50000000E-01  8.50000000E-01
  8.50000000E-01  8.50000000E-01  8.50000000E-01  8.50000000E-01  8.50000000E-01
  8.50000000E-01  8.50000000E-01  8.50000000E-01  8.50000000E-01  8.50000000E-01
  8.50000000E-01  8.50000000E-01  8.50000000E-01  8.50000000E-01  8.50000000E-01
  8.50000000E-01  8.50000000E-01  8.50000000E-01  8.50000000E-01  8.50000000E-01
  8.50000000E-01  8.50000000E-01  8.50000000E-01  8.50000000E-01  8.50000000E-01
  8.50000000E-01  8.50000000E-01  8.50000000E-01  8.50000000E-01  8.50000000E-01
  8.50000000E-01  8.50000000E-01  8.50000000E-01  8.50000000E-01  8.50000000E-01
  8.50000000E-01  8.50000000E-01  8.50000000E-01  8.50000000E-01  8.50000000E-01
  8.50000000E-01  8.50000000E-01  8.50000000E-01  8.50000000E-01  8.50000000E-01
  8.50000000E-01  8.50000000E-01  8.50000000E-01  8.50000000E-01  8.50000000E-01
  8.50000000E-01  8.50000000E-01  8.50000000E-01  8.50000000E-01  8.50000000E-01
  8.50000000E-01  8.50000000E-01  8.50000000E-01  8.50000000E-01  8.50000000E-01
  8.50000000E-01  8.50000000E-01  8.50000000E-01  8.50000000E-01  8.50000000E-01
  8.50000000E-01  8.50000000E-01  8.50000000E-01  8.50000000E-01  8.50000000E-01
  8.50000000E-01  8.50000000E-01  8.50000000E-01  8.50000000E-01  8.50000000E-01
  8.50000000E-01  8.50000000E-01  8.50000000E-01  8.50000000E-01  8.50000000E-01
  8.50000000E-01  8.50000000E-01  8.50000000E-01  8.50000000E-01  8.50000000E-01
  8.50000000E-01  8.50000000E-01  8.50000000E-01  8.50000000E-01  8.50000000E-01
  8.50000000E-01  8.50000000E-01  8.50000000E-01  8.50000000E-01  8.50000000E-01
  8.50000000E-01  8.50000000E-01  8.50000000E-01  8.50000000E-01  8.50000000E-01
  8.50000000E-01  8.50000000E-01  8.50000000E-01  8.50000000E-01  8.50000000E-01
  8.50000000E-01  8.50000000E-01  8.50000000E-01  8.50000000E-01  8.50000000E-01
  8.50000000E-01  8.50000000E-01  8.50000000E-01  8.50000000E-01  8.50000000E-01
  8.50000000E-01  8.50000000E-01  8.50000000E-01  8.50000000E-01  8.50000000E-01
  8.50000000E-01  8.50000000E-01  8.50000000E-01  8.50000000E-01  8.50000000E-01
  8.50000000E-01  8.50000000E-01  8.50000000E-01  8.50000000E-01  8.50000000E-01
  8.50000000E-01  8.50000000E-01  8.50000000E-01  8.50000000E-01  8.50000000E-01
  8.50000000E-01  8.50000000E-01  8.50000000E-01  8.50000000E-01  8.50000000E-01
  8.50000000E-01  8.50000000E-01  8.50000000E-01  8.50000000E-01  8.50000000E-01
  8.50000000E-01  8.50000000E-01  8.50000000E-01  8.50000000E-01  8.50000000E-01
  8.50000000E-01  8.50000000E-01  8.50000000E-01  8.50000000E-01  8.50000000E-01
  8.50000000E-01  8.50000000E-01  8.50000000E-01  8.50000000E-01  8.50000000E-01
  8.50000000E-01  8.50000000E-01  8.50000000E-01  8.50000000E-01  8.50000000E-01
  8.50000000E-01  8.50000000E-01  8.50000000E-01  8.50000000E-01  8.50000000E-01
  8.50000000E-01  8.50000000E-01  8.50000000E-01  8.50000000E-01  8.50000000E-01
  8.50000000E-01  8.50000000E-01  8.50000000E-01  8.50000000E-01  8.50000000E-01
  8.50000000E-01  8.50000000E-01  8.50000000E-01  8.50000000E-01  8.50000000E-01
  8.50000000E-01  8.50000000E-01  8.50000000E-01  8.50000000E-01  8.50000000E-01
  8.50000000E-01  8.50000000E-01  8.50000000E-01  8.50000000E-01  8.50000000E-01
  8.50000000E-01  8.50000000E-01  8.50000000E-01  8.50000000E-01  8.50000000E-01
  8.50000000E-01  8.50000000E-01  8.50000000E-01  8.50000000E-01  8.50000000E-01
  8.50000000E-01  8.50000000E-01  8.50000000E-01  8.50000000E-01  8.50000000E-01
  8.50000000E-01  8.50000000E-01  8.50000000E-01  8.50000000E-01  8.50000000E-01
  8.50000000E-01  8.50000000E-01  8.50000000E-01  8.50000000E-01  8.50000000E-01
  8.50000000E-01  8.50000000E-01  8.50000000E-01  8.50000000E-01  8.50000000E-01
  8.50000000E-01  8.50000000E-01  8.50000000E-01  8.50000000E-01  8.50000000E-01
  8.50000000E-01  8.50000000E-01  8.50000000E-01  8.50000000E-01  8.50000000E-01
  8.50000000E-01  8.50000000E-01  8.50000000E-01  8.50000000E-01  8.50000000E-01
  8.50000000E-01  8.50000000E-01  8.50000000E-01  8.50000000E-01  8.50000000E-01
  8.50000000E-01  8.50000000E-01  8.50000000E-01  8.50000000E-01  8.50000000E-01
  8.50000000E-01  8.50000000E-01  8.50000000E-01  8.50000000E-01  8.50000000E-01
  8.50000000E-01  8.50000000E-01  8.50000000E-01  8.50000000E-01  8.50000000E-01
  8.50000000E-01  8.50000000E-01  8.50000000E-01  8.50000000E-01  8.50000000E-01
  8.50000000E-01  8.50000000E-01  8.50000000E-01  8.50000000E-01  8.50000000E-01
  8.50000000E-01  8.50000000E-01  8.50000000E-01  8.50000000E-01  8.50000000E-01
  8.50000000E-01  8.50000000E-01  8.50000000E-01  8.50000000E-01  8.50000000E-01
  8.50000000E-01  8.50000000E-01  8.50000000E-01  8.50000000E-01  8.50000000E-01
  8.50000000E-01  8.50000000E-01  8.50000000E-01  8.50000000E-01  8.50000000E-01
  8.50000000E-01  8.50000000E-01  8.50000000E-01  8.50000000E-01  8.50000000E-01
  8.50000000E-01  8.50000000E-01  8.50000000E-01  8.50000000E-01  8.50000000E-01
  8.50000000E-01  8.50000000E-01  8.50000000E-01  8.50000000E-01  8.50000000E-01
  8.50000000E-01  8.50000000E-01  8.50000000E-01  8.50000000E-01  8.50000000E-01
  8.50000000E-01  8.50000000E-01  8.50000000E-01  8.50000000E-01  8.50000000E-01
  8.50000000E-01  8.50000000E-01  8.50000000E-01  8.50000000E-01  8.50000000E-01
  8.50000000E-01  8.50000000E-01  8.50000000E-01  8.50000000E-01  8.50000000E-01
  8.50000000E-01  8.50000000E-01  8.50000000E-01  8.50000000E-01  8.50000000E-01
  8.50000000E-01  8.50000000E-01  8.50000000E-01  8.50000000E-01  8.50000000E-01
  8.50000000E-01  8.50000000E-01  8.50000000E-01  8.50000000E-01  8.50000000E-01
  8.50000000E-01  8.50000000E-01  8.50000000E-01  8.50000000E-01  8.50000000E-01
  8.50000000E-01  8.50000000E-01  8.50000000E-01  8.50000000E-01  8.50000000E-01
  8.50000000E-01  8.50000000E-01  8.50000000E-01  8.50000000E-01  8.50000000E-01
  8.50000000E-01  8.50000000E-01  8.50000000E-01  8.50000000E-01  8.50000000E-01
  8.50000000E-01  8.50000000E-01  8.50000000E-01  8.50000000E-01  8.50000000E-01
  8.50000000E-01  8.50000000E-01  8.50000000E-01  8.50000000E-01  8.50000000E-01
  8.50000000E-01  8.50000000E-01  8.50000000E-01  8.50000000E-01  8.50000000E-01
  8.50000000E-01  8.50000000E-01  8.50000000E-01  8.50000000E-01  8.50000000E-01
  8.50000000E-01  8.50000000E-01  8.50000000E-01  8.50000000E-01  8.50000000E-01
  8.50000000E-01  8.50000000E-01  8.50000000E-01  8.50000000E-01  8.50000000E-01
  8.50000000E-01  8.50000000E-01  8.50000000E-01  8.50000000E-01  8.50000000E-01
  8.50000000E-01  8.50000000E-01  8.50000000E-01  8.50000000E-01  8.50000000E-01
  8.50000000E-01  8.50000000E-01  8.50000000E-01  8.50000000E-01  8.50000000E-01
  8.50000000E-01  8.50000000E-01  8.50000000E-01  8.50000000E-01  8.50000000E-01
  8.50000000E-01  8.50000000E-01  8.50000000E-01  8.50000000E-01  8.50000000E-01
  8.50000000E-01  8.50000000E-01  8.50000000E-01  8.50000000E-01  8.50000000E-01
  8.50000000E-01  8.50000000E-01  8.50000000E-01  8.50000000E-01  8.50000000E-01
  8.50000000E-01  8.50000000E-01  8.50000000E-01  8.50000000E-01  8.50000000E-01
  8.50000000E-01  8.50000000E-01  8.50000000E-01  8.50000000E-01  8.50000000E-01
  8.50000000E-01  8.50000000E-01  8.50000000E-01  8.50000000E-01  8.50000000E-01
  8.50000000E-01  8.50000000E-01  8.50000000E-01  8.50000000E-01  8.50000000E-01
  8.50000000E-01  8.50000000E-01  8.50000000E-01  8.50000000E-01  8.50000000E-01
  8.50000000E-01  8.50000000E-01  8.50000000E-01  8.50000000E-01  8.50000000E-01
  8.50000000E-01  8.50000000E-01  8.50000000E-01  8.50000000E-01  8.50000000E-01
  8.50000000E-01  8.50000000E-01  8.50000000E-01  8.50000000E-01  8.50000000E-01
  8.50000000E-01  8.50000000E-01  8.50000000E-01  8.50000000E-01  8.50000000E-01
  8.50000000E-01  8.50000000E-01  8.50000000E-01  8.50000000E-01  8.50000000E-01
  8.50000000E-01  8.50000000E-01  8.50000000E-01  8.50000000E-01  8.50000000E-01
  8.50000000E-01  8.50000000E-01  8.50000000E-01  8.50000000E-01  8.50000000E-01
  8.50000000E-01  8.50000000E-01  8.50000000E-01  8.50000000E-01  8.50000000E-01
  8.50000000E-01  8.50000000E-01  8.50000000E-01  8.50000000E-01  8.50000000E-01
  8.50000000E-01  8.50000000E-01  8.50000000E-01  8.50000000E-01  8.50000000E-01
  8.50000000E-01  8.50000000E-01  8.50000000E-01  8.50000000E-01  8.50000000E-01
  8.50000000E-01  8.50000000E-01  8.50000000E-01  8.50000000E-01  8.50000000E-01
  8.50000000E-01  8.50000000E-01  8.50000000E-01  8.50000000E-01  8.50000000E-01
  8.50000000E-01  8.50000000E-01  8.50000000E-01  8.50000000E-01  8.50000000E-01
  8.50000000E-01  8.50000000E-01  8.50000000E-01  8.50000000E-01  8.50000000E-01
  8.50000000E-01  8.50000000E-01  8.50000000E-01  8.50000000E-01  8.50000000E-01
  8.50000000E-01  8.50000000E-01  8.50000000E-01  8.50000000E-01  8.50000000E-01
  8.50000000E-01  8.50000000E-01  8.50000000E-01  8.50000000E-01  8.50000000E-01
  8.50000000E-01  8.50000000E-01  8.50000000E-01  8.50000000E-01  8.50000000E-01
  8.50000000E-01  8.50000000E-01  8.50000000E-01  8.50000000E-01  8.50000000E-01
  8.50000000E-01  8.50000000E-01  8.50000000E-01  8.50000000E-01  8.50000000E-01
  8.50000000E-01  8.50000000E-01  8.50000000E-01  8.50000000E-01  8.50000000E-01
  8.50000000E-01  8.50000000E-01  8.50000000E-01  8.50000000E-01  8.50000000E-01
  8.50000000E-01  8.50000000E-01  8.50000000E-01  8.50000000E-01  8.50000000E-01
  8.50000000E-01  8.50000000E-01  8.50000000E-01  8.50000000E-01  8.50000000E-01
  8.50000000E-01  8.50000000E-01  8.50000000E-01  8.50000000E-01  8.50000000E-01
  8.50000000E-01  8.50000000E-01  8.50000000E-01  8.50000000E-01  8.50000000E-01
  8.50000000E-01  8.50000000E-01  8.50000000E-01  8.50000000E-01  8.50000000E-01
  8.50000000E-01  8.50000000E-01  8.50000000E-01  8.50000000E-01  8.50000000E-01
  8.50000000E-01  8.50000000E-01  8.50000000E-01  8.50000000E-01  8.50000000E-01
  8.50000000E-01  8.50000000E-01  8.50000000E-01  8.50000000E-01  8.50000000E-01
  8.50000000E-01  8.50000000E-01  8.50000000E-01  8.50000000E-01  8.50000000E-01
  8.50000000E-01  8.50000000E-01  8.50000000E-01  8.50000000E-01  8.50000000E-01
  8.50000000E-01  8.50000000E-01  8.50000000E-01  8.50000000E-01  8.50000000E-01
  8.50000000E-01  8.50000000E-01  8.50000000E-01  8.50000000E-01  8.50000000E-01
  8.50000000E-01  8.50000000E-01  8.50000000E-01  8.50000000E-01  8.50000000E-01
  8.50000000E-01  8.50000000E-01  8.50000000E-01  8.50000000E-01  8.50000000E-01
  8.50000000E-01  8.50000000E-01  8.50000000E-01  8.50000000E-01  8.50000000E-01
  8.50000000E-01  8.50000000E-01  8.50000000E-01  8.50000000E-01  8.50000000E-01
  8.50000000E-01  8.50000000E-01  8.50000000E-01  8.50000000E-01  8.50000000E-01
  8.50000000E-01  8.50000000E-01  8.50000000E-01  8.50000000E-01  8.50000000E-01
  8.50000000E-01  8.50000000E-01  8.50000000E-01  8.50000000E-01  8.50000000E-01
  8.50000000E-01  8.50000000E-01  8.50000000E-01  8.50000000E-01  8.50000000E-01
  8.50000000E-01  8.50000000E-01  8.50000000E-01  8.50000000E-01  8.50000000E-01
  8.50000000E-01  8.50000000E-01  8.50000000E-01  8.50000000E-01  8.50000000E-01
  8.50000000E-01  8.50000000E-01  8.50000000E-01  8.50000000E-01  8.50000000E-01
  8.50000000E-01  8.50000000E-01  8.50000000E-01  8.50000000E-01  8.50000000E-01
  8.50000000E-01  8.50000000E-01  8.50000000E-01  8.50000000E-01  8.50000000E-01
  8.50000000E-01  8.50000000E-01  8.50000000E-01  8.50000000E-01  8.50000000E-01
  8.50000000E-01  8.50000000E-01  8.50000000E-01  8.50000000E-01  8.50000000E-01
  8.50000000E-01  8.50000000E-01  8.50000000E-01  8.50000000E-01  8.50000000E-01
  8.50000000E-01  8.50000000E-01  8.50000000E-01  8.50000000E-01  8.50000000E-01
  8.50000000E-01  8.50000000E-01  8.50000000E-01  8.50000000E-01  8.50000000E-01
  8.50000000E-01  8.50000000E-01  8.50000000E-01  8.50000000E-01  8.50000000E-01
  8.50000000E-01  8.50000000E-01  8.50000000E-01  8.50000000E-01  8.50000000E-01
  8.50000000E-01  8.50000000E-01  8.50000000E-01  8.50000000E-01  8.50000000E-01
  8.50000000E-01  8.50000000E-01  8.50000000E-01  8.50000000E-01  8.50000000E-01
  8.50000000E-01  8.50000000E-01  8.50000000E-01  8.50000000E-01  8.50000000E-01
  8.50000000E-01  8.50000000E-01  8.50000000E-01  8.50000000E-01  8.50000000E-01
  8.50000000E-01  8.50000000E-01  8.50000000E-01  8.50000000E-01  8.50000000E-01
  8.50000000E-01  8.50000000E-01  8.50000000E-01  8.50000000E-01  8.50000000E-01
  8.50000000E-01  8.50000000E-01  8.50000000E-01  8.50000000E-01  8.50000000E-01
  8.50000000E-01  8.50000000E-01  8.50000000E-01  8.50000000E-01  8.50000000E-01
  8.50000000E-01  8.50000000E-01  8.50000000E-01  8.50000000E-01  8.50000000E-01
  8.50000000E-01  8.50000000E-01  8.50000000E-01  8.50000000E-01  8.50000000E-01
  8.50000000E-01  8.50000000E-01  8.50000000E-01  8.50000000E-01  8.50000000E-01
  8.50000000E-01  8.50000000E-01  8.50000000E-01  8.50000000E-01  8.50000000E-01
  8.50000000E-01  8.50000000E-01  8.50000000E-01  8.50000000E-01  8.50000000E-01
  8.50000000E-01  8.50000000E-01  8.50000000E-01  8.50000000E-01  8.50000000E-01
  8.50000000E-01  8.50000000E-01  8.50000000E-01  8.50000000E-01  8.50000000E-01
  8.50000000E-01  8.50000000E-01  8.50000000E-01  8.50000000E-01  8.50000000E-01
  8.50000000E-01  8.50000000E-01  8.50000000E-01  8.50000000E-01  8.50000000E-01
  8.50000000E-01  8.50000000E-01  8.50000000E-01  8.50000000E-01  8.50000000E-01
  8.50000000E-01  8.50000000E-01  8.50000000E-01  8.50000000E-01  8.50000000E-01
  8.50000000E-01  8.50000000E-01  8.50000000E-01  8.50000000E-01  8.50000000E-01
  8.50000000E-01  8.50000000E-01  8.50000000E-01  8.50000000E-01  8.50000000E-01
  8.50000000E-01  8.50000000E-01  8.50000000E-01  8.50000000E-01  8.50000000E-01
  8.50000000E-01  8.50000000E-01  8.50000000E-01  8.50000000E-01  8.50000000E-01
  8.50000000E-01  8.50000000E-01  8.50000000E-01  8.50000000E-01  8.50000000E-01
  8.50000000E-01  8.50000000E-01  8.50000000E-01  8.50000000E-01  8.50000000E-01
  8.50000000E-01  8.50000000E-01  8.50000000E-01  8.50000000E-01  8.50000000E-01
  8.50000000E-01  8.50000000E-01  8.50000000E-01  8.50000000E-01  8.50000000E-01
  8.50000000E-01  8.50000000E-01  8.50000000E-01  8.50000000E-01  8.50000000E-01
  8.50000000E-01  8.50000000E-01  8.50000000E-01  8.50000000E-01  8.50000000E-01
  8.50000000E-01  8.50000000E-01  8.50000000E-01  8.50000000E-01  8.50000000E-01
  8.50000000E-01  8.50000000E-01  8.50000000E-01  8.50000000E-01  8.50000000E-01
  8.50000000E-01  8.50000000E-01  8.50000000E-01  8.50000000E-01  8.50000000E-01
  8.50000000E-01  8.50000000E-01  8.50000000E-01  8.50000000E-01  8.50000000E-01
  8.50000000E-01  8.50000000E-01  8.50000000E-01  8.50000000E-01  8.50000000E-01
  8.50000000E-01  8.50000000E-01  8.50000000E-01  8.50000000E-01  8.50000000E-01
  8.50000000E-01  8.50000000E-01  8.50000000E-01  8.50000000E-01  8.50000000E-01
  8.50000000E-01  8.50000000E-01  8.50000000E-01  8.50000000E-01  8.50000000E-01
  8.50000000E-01  8.50000000E-01  8.50000000E-01  8.50000000E-01  8.50000000E-01
  8.50000000E-01  8.50000000E-01  8.50000000E-01  8.50000000E-01  8.50000000E-01
  8.50000000E-01  8.50000000E-01  8.50000000E-01  8.50000000E-01  8.50000000E-01
  8.50000000E-01  8.50000000E-01  8.50000000E-01  8.50000000E-01  8.50000000E-01
  8.50000000E-01  8.50000000E-01  8.50000000E-01  8.50000000E-01  8.50000000E-01
  8.50000000E-01  8.50000000E-01  8.50000000E-01  8.50000000E-01  8.50000000E-01
  8.50000000E-01  8.50000000E-01  8.50000000E-01  8.50000000E-01  8.50000000E-01
  8.50000000E-01  8.50000000E-01  8.50000000E-01  8.50000000E-01  8.50000000E-01
  8.50000000E-01  8.50000000E-01  8.50000000E-01  8.50000000E-01  8.50000000E-01
  8.50000000E-01  8.50000000E-01  8.50000000E-01  8.50000000E-01  8.50000000E-01
  8.50000000E-01  8.50000000E-01  8.50000000E-01  8.50000000E-01  8.50000000E-01
  8.50000000E-01  8.50000000E-01  8.50000000E-01  8.50000000E-01  8.50000000E-01
  8.50000000E-01  8.50000000E-01  8.50000000E-01  8.50000000E-01  8.50000000E-01
  8.50000000E-01  8.50000000E-01  8.50000000E-01  8.50000000E-01  8.50000000E-01
  8.50000000E-01  8.50000000E-01  8.50000000E-01  8.50000000E-01  8.50000000E-01
  8.50000000E-01  8.50000000E-01  8.50000000E-01  8.50000000E-01  8.50000000E-01
  8.50000000E-01  8.50000000E-01  8.50000000E-01  8.50000000E-01  8.50000000E-01
  8.50000000E-01  8.50000000E-01  8.50000000E-01  8.50000000E-01  8.50000000E-01
  8.50000000E-01  8.50000000E-01  8.50000000E-01  8.50000000E-01  8.50000000E-01
  8.50000000E-01  8.50000000E-01  8.50000000E-01  8.50000000E-01  8.50000000E-01
  8.50000000E-01  8.50000000E-01  8.50000000E-01  8.50000000E-01  8.50000000E-01
  8.50000000E-01  8.50000000E-01  8.50000000E-01  8.50000000E-01  8.50000000E-01
  8.50000000E-01  8.50000000E-01  8.50000000E-01  8.50000000E-01  8.50000000E-01
  8.50000000E-01  8.50000000E-01  8.50000000E-01  8.50000000E-01  8.50000000E-01
  8.50000000E-01  8.50000000E-01  8.50000000E-01  8.50000000E-01  8.50000000E-01
  8.50000000E-01  8.50000000E-01  8.50000000E-01  8.50000000E-01  8.50000000E-01
  8.50000000E-01  8.50000000E-01  8.50000000E-01  8.50000000E-01  8.50000000E-01
  8.50000000E-01  8.50000000E-01  8.50000000E-01  8.50000000E-01  8.50000000E-01
  8.50000000E-01  8.50000000E-01  8.50000000E-01  8.50000000E-01  8.50000000E-01
  8.50000000E-01  8.50000000E-01  8.50000000E-01  8.50000000E-01  8.50000000E-01
  8.50000000E-01  8.50000000E-01  8.50000000E-01  8.50000000E-01  8.50000000E-01
  8.50000000E-01  8.50000000E-01  8.50000000E-01  8.50000000E-01  8.50000000E-01
  8.50000000E-01  8.50000000E-01  8.50000000E-01  8.50000000E-01  8.50000000E-01
  8.50000000E-01  8.50000000E-01  8.50000000E-01  8.50000000E-01  8.50000000E-01
  8.50000000E-01  8.50000000E-01  8.50000000E-01  8.50000000E-01  8.50000000E-01
  8.50000000E-01  8.50000000E-01  8.50000000E-01  8.50000000E-01  8.50000000E-01
  8.50000000E-01  8.50000000E-01  8.50000000E-01  8.50000000E-01  8.50000000E-01
  8.50000000E-01  8.50000000E-01  8.50000000E-01  8.50000000E-01  8.50000000E-01
  8.50000000E-01  8.50000000E-01  8.50000000E-01  8.50000000E-01  8.50000000E-01
  8.50000000E-01  8.50000000E-01  8.50000000E-01  8.50000000E-01  8.50000000E-01
  8.50000000E-01  8.50000000E-01  8.50000000E-01  8.50000000E-01  8.50000000E-01
  8.50000000E-01  8.50000000E-01  8.50000000E-01  8.50000000E-01  8.50000000E-01
  8.50000000E-01  8.50000000E-01  8.50000000E-01  8.50000000E-01  8.50000000E-01
  8.50000000E-01  8.50000000E-01  8.50000000E-01  8.50000000E-01  8.50000000E-01
  8.50000000E-01  8.50000000E-01  8.50000000E-01  8.50000000E-01  8.50000000E-01
  8.50000000E-01  8.50000000E-01  8.50000000E-01  8.50000000E-01  8.50000000E-01
  8.50000000E-01  8.50000000E-01  8.50000000E-01  8.50000000E-01  8.50000000E-01
  8.50000000E-01  8.50000000E-01  8.50000000E-01  8.50000000E-01  8.50000000E-01
  8.50000000E-01  8.50000000E-01  8.50000000E-01  8.50000000E-01  8.50000000E-01
  8.50000000E-01  8.50000000E-01  8.50000000E-01  8.50000000E-01  8.50000000E-01
  8.50000000E-01  8.50000000E-01  8.50000000E-01  8.50000000E-01  8.50000000E-01
  8.50000000E-01  8.50000000E-01  8.50000000E-01  8.50000000E-01  8.50000000E-01
  8.50000000E-01  8.50000000E-01  8.50000000E-01  8.50000000E-01  8.50000000E-01
  8.50000000E-01  8.50000000E-01  8.50000000E-01  8.50000000E-01  8.50000000E-01
  8.50000000E-01  8.50000000E-01  8.50000000E-01  8.50000000E-01  8.50000000E-01
  8.50000000E-01  8.50000000E-01  8.50000000E-01  8.50000000E-01  8.50000000E-01
  8.50000000E-01  8.50000000E-01  8.50000000E-01  8.50000000E-01  8.50000000E-01
  8.50000000E-01  8.50000000E-01  8.50000000E-01  8.50000000E-01  8.50000000E-01
  8.50000000E-01  8.50000000E-01  8.50000000E-01  8.50000000E-01  8.50000000E-01
  8.50000000E-01  8.50000000E-01  8.50000000E-01  8.50000000E-01  8.50000000E-01
  8.50000000E-01  8.50000000E-01  8.50000000E-01  8.50000000E-01  8.50000000E-01
  8.50000000E-01  8.50000000E-01  8.50000000E-01  8.50000000E-01  8.50000000E-01
  8.50000000E-01  8.50000000E-01  8.50000000E-01  8.50000000E-01  8.50000000E-01
  8.50000000E-01  8.50000000E-01  8.50000000E-01  8.50000000E-01  8.50000000E-01
  8.50000000E-01  8.50000000E-01  8.50000000E-01  8.50000000E-01  8.50000000E-01
  8.50000000E-01  8.50000000E-01  8.50000000E-01  8.50000000E-01  8.50000000E-01
  8.50000000E-01  8.50000000E-01  8.50000000E-01  8.50000000E-01  8.50000000E-01
  8.50000000E-01  8.50000000E-01  8.50000000E-01  8.50000000E-01  8.50000000E-01
  8.50000000E-01  8.50000000E-01  8.50000000E-01  8.50000000E-01  8.50000000E-01
  8.50000000E-01  8.50000000E-01  8.50000000E-01  8.50000000E-01  8.50000000E-01
  8.50000000E-01  8.50000000E-01  8.50000000E-01  8.50000000E-01  8.50000000E-01
  8.50000000E-01  8.50000000E-01  8.50000000E-01  8.50000000E-01  8.50000000E-01
  8.50000000E-01  8.50000000E-01  8.50000000E-01  8.50000000E-01  8.50000000E-01
  8.50000000E-01  8.50000000E-01  8.50000000E-01  8.50000000E-01  8.50000000E-01
  8.50000000E-01  8.50000000E-01  8.50000000E-01  8.50000000E-01  8.50000000E-01
  8.50000000E-01  8.50000000E-01  8.50000000E-01  8.50000000E-01  8.50000000E-01
  8.50000000E-01  8.50000000E-01  8.50000000E-01  8.50000000E-01  8.50000000E-01
  8.50000000E-01  8.50000000E-01  8.50000000E-01  8.50000000E-01  8.50000000E-01
  8.50000000E-01  8.50000000E-01  8.50000000E-01  8.50000000E-01  8.50000000E-01
  8.50000000E-01  8.50000000E-01  8.50000000E-01  8.50000000E-01  8.50000000E-01
  8.50000000E-01  8.50000000E-01  8.50000000E-01  8.50000000E-01  8.50000000E-01
  8.50000000E-01  8.50000000E-01  8.50000000E-01  8.50000000E-01  8.50000000E-01
  8.50000000E-01  8.50000000E-01  8.50000000E-01  8.50000000E-01  8.50000000E-01
  8.50000000E-01  8.50000000E-01  8.50000000E-01  8.50000000E-01  8.50000000E-01
  8.50000000E-01  8.50000000E-01  8.50000000E-01  8.50000000E-01  8.50000000E-01
  8.50000000E-01  8.50000000E-01  8.50000000E-01  8.50000000E-01  8.50000000E-01
  8.50000000E-01  8.50000000E-01  8.50000000E-01  8.50000000E-01  8.50000000E-01
  8.50000000E-01  8.50000000E-01  8.50000000E-01  8.50000000E-01  8.50000000E-01
  8.50000000E-01  8.50000000E-01  8.50000000E-01  8.50000000E-01  8.50000000E-01
  8.50000000E-01  8.50000000E-01  8.50000000E-01  8.50000000E-01  8.50000000E-01
  8.50000000E-01  8.50000000E-01  8.50000000E-01  8.50000000E-01  8.50000000E-01
  8.50000000E-01  8.50000000E-01  8.50000000E-01  8.50000000E-01  8.50000000E-01
  8.50000000E-01  8.50000000E-01  8.50000000E-01  8.50000000E-01  8.50000000E-01
  8.50000000E-01  8.50000000E-01  8.50000000E-01  8.50000000E-01  8.50000000E-01
  8.50000000E-01  8.50000000E-01  8.50000000E-01  8.50000000E-01  8.50000000E-01
  8.50000000E-01  8.50000000E-01  8.50000000E-01  8.50000000E-01  8.50000000E-01
  8.50000000E-01  8.50000000E-01  8.50000000E-01  8.50000000E-01  8.50000000E-01
  8.50000000E-01  8.50000000E-01  8.50000000E-01  8.50000000E-01  8.50000000E-01
  8.50000000E-01  8.50000000E-01  8.50000000E-01  8.50000000E-01  8.50000000E-01
  8.50000000E-01  8.50000000E-01  8.50000000E-01  8.50000000E-01  8.50000000E-01
  8.50000000E-01  8.50000000E-01  8.50000000E-01  8.50000000E-01  8.50000000E-01
  8.50000000E-01  8.50000000E-01  8.50000000E-01  8.50000000E-01  8.50000000E-01
  8.50000000E-01  8.50000000E-01  8.50000000E-01  8.50000000E-01  8.50000000E-01
  8.50000000E-01  8.50000000E-01  8.50000000E-01  8.50000000E-01  8.50000000E-01
  8.50000000E-01  8.50000000E-01  8.50000000E-01  8.50000000E-01  8.50000000E-01
  8.50000000E-01  8.50000000E-01  8.50000000E-01  8.50000000E-01  8.50000000E-01
  8.50000000E-01  8.50000000E-01  8.50000000E-01  8.50000000E-01  8.50000000E-01
  8.50000000E-01  8.50000000E-01  8.50000000E-01  8.50000000E-01  8.50000000E-01
  8.50000000E-01  8.50000000E-01  8.50000000E-01  8.50000000E-01  8.50000000E-01
  8.50000000E-01  8.50000000E-01  8.50000000E-01  8.50000000E-01  8.50000000E-01
  8.50000000E-01  8.50000000E-01  8.50000000E-01  8.50000000E-01  8.50000000E-01
  8.50000000E-01  8.50000000E-01  8.50000000E-01  8.50000000E-01  8.50000000E-01
  8.50000000E-01  8.50000000E-01  8.50000000E-01  8.50000000E-01  8.50000000E-01
  8.50000000E-01  8.50000000E-01  8.50000000E-01  8.50000000E-01  8.50000000E-01
  8.50000000E-01  8.50000000E-01  8.50000000E-01  8.50000000E-01  8.50000000E-01
  8.50000000E-01  8.50000000E-01  8.50000000E-01  8.50000000E-01  8.50000000E-01
  8.50000000E-01  8.50000000E-01  8.50000000E-01  8.50000000E-01  8.50000000E-01
  8.50000000E-01  8.50000000E-01  8.50000000E-01  8.50000000E-01  8.50000000E-01
  8.50000000E-01  8.50000000E-01  8.50000000E-01  8.50000000E-01  8.50000000E-01
  8.50000000E-01  8.50000000E-01  8.50000000E-01  8.50000000E-01  8.50000000E-01
  8.50000000E-01  8.50000000E-01  8.50000000E-01  8.50000000E-01  8.50000000E-01
  8.50000000E-01  8.50000000E-01  8.50000000E-01  8.50000000E-01  8.50000000E-01
  8.50000000E-01  8.50000000E-01  8.50000000E-01  8.50000000E-01  8.50000000E-01
  8.50000000E-01  8.50000000E-01  8.50000000E-01  8.50000000E-01  8.50000000E-01
  8.50000000E-01  8.50000000E-01  8.50000000E-01  8.50000000E-01  8.50000000E-01
  8.50000000E-01  8.50000000E-01  8.50000000E-01  8.50000000E-01  8.50000000E-01
  8.50000000E-01  8.50000000E-01  8.50000000E-01  8.50000000E-01  8.50000000E-01
  8.50000000E-01  8.50000000E-01  8.50000000E-01  8.50000000E-01  8.50000000E-01
  8.50000000E-01  8.50000000E-01  8.50000000E-01  8.50000000E-01  8.50000000E-01
  8.50000000E-01  8.50000000E-01  8.50000000E-01  8.50000000E-01  8.50000000E-01
  8.50000000E-01  8.50000000E-01  8.50000000E-01  8.50000000E-01  8.50000000E-01
  8.50000000E-01  8.50000000E-01  8.50000000E-01  8.50000000E-01  8.50000000E-01
  8.50000000E-01  8.50000000E-01  8.50000000E-01  8.50000000E-01  8.50000000E-01
  8.50000000E-01  8.50000000E-01  8.50000000E-01  8.50000000E-01  8.50000000E-01
  8.50000000E-01  8.50000000E-01  8.50000000E-01  8.50000000E-01  8.50000000E-01
  8.50000000E-01  8.50000000E-01  8.50000000E-01  8.50000000E-01  8.50000000E-01
  8.50000000E-01  8.50000000E-01  8.50000000E-01  8.50000000E-01  8.50000000E-01
  8.50000000E-01  8.50000000E-01  8.50000000E-01  8.50000000E-01  8.50000000E-01
  8.50000000E-01  8.50000000E-01  8.50000000E-01  8.50000000E-01  8.50000000E-01
  8.50000000E-01  8.50000000E-01  8.50000000E-01  8.50000000E-01  8.50000000E-01
  8.50000000E-01  8.50000000E-01  8.50000000E-01  8.50000000E-01  8.50000000E-01
  8.50000000E-01  8.50000000E-01  8.50000000E-01  8.50000000E-01  8.50000000E-01
  8.50000000E-01  8.50000000E-01  8.50000000E-01  8.50000000E-01  8.50000000E-01
  8.50000000E-01  8.50000000E-01  8.50000000E-01  8.50000000E-01  8.50000000E-01
  8.50000000E-01  8.50000000E-01  8.50000000E-01  8.50000000E-01  8.50000000E-01
  8.50000000E-01  8.50000000E-01  8.50000000E-01  8.50000000E-01  8.50000000E-01
  8.50000000E-01  8.50000000E-01  8.50000000E-01  8.50000000E-01  8.50000000E-01
  8.50000000E-01  8.50000000E-01  8.50000000E-01  8.50000000E-01  8.50000000E-01
  8.50000000E-01  8.50000000E-01  8.50000000E-01  8.50000000E-01  8.50000000E-01
  8.50000000E-01  8.50000000E-01  8.50000000E-01  8.50000000E-01  8.50000000E-01
  8.50000000E-01  8.50000000E-01  8.50000000E-01  8.50000000E-01  8.50000000E-01
  8.50000000E-01  8.50000000E-01  8.50000000E-01  8.50000000E-01  8.50000000E-01
  8.50000000E-01  8.50000000E-01  8.50000000E-01  8.50000000E-01  8.50000000E-01
  8.50000000E-01  8.50000000E-01  8.50000000E-01  8.50000000E-01  8.50000000E-01
  8.50000000E-01  8.50000000E-01  8.50000000E-01  8.50000000E-01  8.50000000E-01
  8.50000000E-01  8.50000000E-01  8.50000000E-01  8.50000000E-01  8.50000000E-01
  8.50000000E-01  8.50000000E-01  8.50000000E-01  8.50000000E-01  8.50000000E-01
  8.50000000E-01  8.50000000E-01  8.50000000E-01  8.50000000E-01  8.50000000E-01
  8.50000000E-01  8.50000000E-01  8.50000000E-01  8.50000000E-01  8.50000000E-01
  8.50000000E-01  8.50000000E-01  8.50000000E-01  8.50000000E-01  8.50000000E-01
  8.50000000E-01  8.50000000E-01  8.50000000E-01  8.50000000E-01  8.50000000E-01
  8.50000000E-01  8.50000000E-01  8.50000000E-01  8.50000000E-01  8.50000000E-01
  8.50000000E-01  8.50000000E-01  8.50000000E-01  8.50000000E-01  8.50000000E-01
  8.50000000E-01  8.50000000E-01  8.50000000E-01  8.50000000E-01  8.50000000E-01
  8.50000000E-01  8.50000000E-01  8.50000000E-01  8.50000000E-01  8.50000000E-01
  8.50000000E-01  8.50000000E-01  8.50000000E-01  8.50000000E-01  8.50000000E-01
  8.50000000E-01  8.50000000E-01  8.50000000E-01  8.50000000E-01  8.50000000E-01
  8.50000000E-01  8.50000000E-01  8.50000000E-01  8.50000000E-01  8.50000000E-01
  8.50000000E-01  8.50000000E-01  8.50000000E-01  8.50000000E-01  8.50000000E-01
  8.50000000E-01  8.50000000E-01  8.50000000E-01  8.50000000E-01  8.50000000E-01
  8.50000000E-01  8.50000000E-01  8.50000000E-01  8.50000000E-01  8.50000000E-01
  8.50000000E-01  8.50000000E-01  8.50000000E-01  8.50000000E-01  8.50000000E-01
  8.50000000E-01  8.50000000E-01  8.50000000E-01  8.50000000E-01  8.50000000E-01
  8.50000000E-01  8.50000000E-01  8.50000000E-01  8.50000000E-01  8.50000000E-01
  8.50000000E-01  8.50000000E-01  8.50000000E-01  8.50000000E-01  8.50000000E-01
  8.50000000E-01  8.50000000E-01  8.50000000E-01  8.50000000E-01  8.50000000E-01
  8.50000000E-01  8.50000000E-01  8.50000000E-01  8.50000000E-01  8.50000000E-01
  8.50000000E-01  8.50000000E-01  8.50000000E-01  8.50000000E-01  8.50000000E-01
  8.50000000E-01  8.50000000E-01  8.50000000E-01  8.50000000E-01  8.50000000E-01
  8.50000000E-01  8.50000000E-01  8.50000000E-01  8.50000000E-01  8.50000000E-01
  8.50000000E-01  8.50000000E-01  8.50000000E-01  8.50000000E-01  8.50000000E-01
  8.50000000E-01  8.50000000E-01  8.50000000E-01  8.50000000E-01  8.50000000E-01
  8.50000000E-01  8.50000000E-01  8.50000000E-01  8.50000000E-01  8.50000000E-01
  8.50000000E-01  8.50000000E-01  8.50000000E-01  8.50000000E-01  8.50000000E-01
  8.50000000E-01  8.50000000E-01  8.50000000E-01  8.50000000E-01  8.50000000E-01
  8.50000000E-01  8.50000000E-01  8.50000000E-01  8.50000000E-01  8.50000000E-01
  8.50000000E-01  8.50000000E-01  8.50000000E-01  8.50000000E-01  8.50000000E-01
  8.50000000E-01  8.50000000E-01  8.50000000E-01  8.50000000E-01  8.50000000E-01
  8.50000000E-01  8.50000000E-01  8.50000000E-01  8.50000000E-01  8.50000000E-01
  8.50000000E-01  8.50000000E-01  8.50000000E-01  8.50000000E-01  8.50000000E-01
  8.50000000E-01  8.50000000E-01  8.50000000E-01  8.50000000E-01  8.50000000E-01
  8.50000000E-01  8.50000000E-01  8.50000000E-01  8.50000000E-01  8.50000000E-01
  8.50000000E-01  8.50000000E-01  8.50000000E-01  8.50000000E-01  8.50000000E-01
  8.50000000E-01  8.50000000E-01  8.50000000E-01  8.50000000E-01  8.50000000E-01
  8.50000000E-01  8.50000000E-01  8.50000000E-01  8.50000000E-01  8.50000000E-01
  8.50000000E-01  8.50000000E-01  8.50000000E-01  8.50000000E-01  8.50000000E-01
  8.50000000E-01  8.50000000E-01  8.50000000E-01  8.50000000E-01  8.50000000E-01
  8.50000000E-01  8.50000000E-01  8.50000000E-01  8.50000000E-01  8.50000000E-01
  8.50000000E-01  8.50000000E-01  8.50000000E-01  8.50000000E-01  8.50000000E-01
  8.50000000E-01  8.50000000E-01  8.50000000E-01  8.50000000E-01  8.50000000E-01
  8.50000000E-01  8.50000000E-01  8.50000000E-01  8.50000000E-01  8.50000000E-01
  8.50000000E-01  8.50000000E-01  8.50000000E-01  8.50000000E-01  8.50000000E-01
  8.50000000E-01  8.50000000E-01  8.50000000E-01  8.50000000E-01  8.50000000E-01
  8.50000000E-01  8.50000000E-01  8.50000000E-01  8.50000000E-01  8.50000000E-01
  8.50000000E-01  8.50000000E-01  8.50000000E-01  8.50000000E-01  8.50000000E-01
  8.50000000E-01  8.50000000E-01  8.50000000E-01  8.50000000E-01  8.50000000E-01
  8.50000000E-01  8.50000000E-01  8.50000000E-01  8.50000000E-01  8.50000000E-01
  8.50000000E-01  8.50000000E-01  8.50000000E-01  8.50000000E-01  8.50000000E-01
  8.50000000E-01  8.50000000E-01  8.50000000E-01  8.50000000E-01  8.50000000E-01
  8.50000000E-01  8.50000000E-01  8.50000000E-01  8.50000000E-01  8.50000000E-01
  8.50000000E-01  8.50000000E-01  8.50000000E-01  8.50000000E-01  8.50000000E-01
  8.50000000E-01  8.50000000E-01  8.50000000E-01  8.50000000E-01  8.50000000E-01
  8.50000000E-01  8.50000000E-01  8.50000000E-01  8.50000000E-01  8.50000000E-01
  8.50000000E-01  8.50000000E-01  8.50000000E-01  8.50000000E-01  8.50000000E-01
  8.50000000E-01  8.50000000E-01  8.50000000E-01  8.50000000E-01  8.50000000E-01
  8.50000000E-01  8.50000000E-01  8.50000000E-01  8.50000000E-01  8.50000000E-01
  8.50000000E-01  8.50000000E-01  8.50000000E-01  8.50000000E-01  8.50000000E-01
  8.50000000E-01  8.50000000E-01  8.50000000E-01  8.50000000E-01  8.50000000E-01
  8.50000000E-01  8.50000000E-01  8.50000000E-01  8.50000000E-01  8.50000000E-01
  8.50000000E-01  8.50000000E-01  8.50000000E-01  8.50000000E-01  8.50000000E-01
  8.50000000E-01  8.50000000E-01  8.50000000E-01  8.50000000E-01  8.50000000E-01
  8.50000000E-01  8.50000000E-01  8.50000000E-01  8.50000000E-01  8.50000000E-01
  8.50000000E-01  8.50000000E-01  8.50000000E-01  8.50000000E-01  8.50000000E-01
  8.50000000E-01  8.50000000E-01  8.50000000E-01  8.50000000E-01  8.50000000E-01
  8.50000000E-01  8.50000000E-01  8.50000000E-01  8.50000000E-01  8.50000000E-01
  8.50000000E-01  8.50000000E-01  8.50000000E-01  8.50000000E-01  8.50000000E-01
  8.50000000E-01  8.50000000E-01  8.50000000E-01  8.50000000E-01  8.50000000E-01
  8.50000000E-01  8.50000000E-01  8.50000000E-01  8.50000000E-01  8.50000000E-01
  8.50000000E-01  8.50000000E-01  8.50000000E-01  8.50000000E-01  8.50000000E-01
  8.50000000E-01  8.50000000E-01  8.50000000E-01  8.50000000E-01  8.50000000E-01
  8.50000000E-01  8.50000000E-01  8.50000000E-01  8.50000000E-01  8.50000000E-01
  8.50000000E-01  8.50000000E-01  8.50000000E-01  8.50000000E-01  8.50000000E-01
  8.50000000E-01  8.50000000E-01  8.50000000E-01  8.50000000E-01  8.50000000E-01
  8.50000000E-01  8.50000000E-01  8.50000000E-01  8.50000000E-01  8.50000000E-01
  8.50000000E-01  8.50000000E-01  8.50000000E-01  8.50000000E-01  8.50000000E-01
  8.50000000E-01  8.50000000E-01  8.50000000E-01  8.50000000E-01  8.50000000E-01
  8.50000000E-01  8.50000000E-01  8.50000000E-01  8.50000000E-01  8.50000000E-01
  8.50000000E-01  8.50000000E-01  8.50000000E-01  8.50000000E-01  8.50000000E-01
  8.50000000E-01  8.50000000E-01  8.50000000E-01  8.50000000E-01  8.50000000E-01
  8.50000000E-01  8.50000000E-01  8.50000000E-01  8.50000000E-01  8.50000000E-01
  8.50000000E-01  8.50000000E-01  8.50000000E-01  8.50000000E-01  8.50000000E-01
  8.50000000E-01  8.50000000E-01  8.50000000E-01  8.50000000E-01  8.50000000E-01
  8.50000000E-01  8.50000000E-01  8.50000000E-01  8.50000000E-01  8.50000000E-01
  8.50000000E-01  8.50000000E-01  8.50000000E-01  8.50000000E-01  8.50000000E-01
  8.50000000E-01  8.50000000E-01  8.50000000E-01  8.50000000E-01  8.50000000E-01
  8.50000000E-01  8.50000000E-01  8.50000000E-01  8.50000000E-01  8.50000000E-01
  8.50000000E-01  8.50000000E-01  8.50000000E-01  8.50000000E-01  8.50000000E-01
  8.50000000E-01  8.50000000E-01  8.50000000E-01  8.50000000E-01  8.50000000E-01
  8.50000000E-01  8.50000000E-01  8.50000000E-01  8.50000000E-01  8.50000000E-01
  8.50000000E-01  8.50000000E-01  8.50000000E-01  8.50000000E-01  8.50000000E-01
  8.50000000E-01  8.50000000E-01  8.50000000E-01  8.50000000E-01  8.50000000E-01
  8.50000000E-01  8.50000000E-01  8.50000000E-01  8.50000000E-01  8.50000000E-01
  8.50000000E-01  8.50000000E-01  8.50000000E-01  8.50000000E-01  8.50000000E-01
  8.50000000E-01  8.50000000E-01  8.50000000E-01  8.50000000E-01  8.50000000E-01
  8.50000000E-01  8.50000000E-01  8.50000000E-01  8.50000000E-01  8.50000000E-01
  8.50000000E-01  8.50000000E-01  8.50000000E-01  8.50000000E-01  8.50000000E-01
  8.50000000E-01  8.50000000E-01  8.50000000E-01  8.50000000E-01  8.50000000E-01
  8.50000000E-01  8.50000000E-01  8.50000000E-01  8.50000000E-01  8.50000000E-01
  8.50000000E-01  8.50000000E-01  8.50000000E-01  8.50000000E-01  8.50000000E-01
  8.50000000E-01  8.50000000E-01  8.50000000E-01  8.50000000E-01  8.50000000E-01
  8.50000000E-01  8.50000000E-01  8.50000000E-01  8.50000000E-01  8.50000000E-01
  8.50000000E-01  8.50000000E-01  8.50000000E-01  8.50000000E-01  8.50000000E-01
  8.50000000E-01  8.50000000E-01  8.50000000E-01  8.50000000E-01  8.50000000E-01
  8.50000000E-01  8.50000000E-01  8.50000000E-01  8.50000000E-01  8.50000000E-01
  8.50000000E-01  8.50000000E-01  8.50000000E-01  8.50000000E-01  8.50000000E-01
  8.50000000E-01  8.50000000E-01  8.50000000E-01  8.50000000E-01  8.50000000E-01
  8.50000000E-01  8.50000000E-01  8.50000000E-01  8.50000000E-01  8.50000000E-01
  8.50000000E-01  8.50000000E-01  8.50000000E-01  8.50000000E-01  8.50000000E-01
  8.50000000E-01  8.50000000E-01  8.50000000E-01  8.50000000E-01  8.50000000E-01
  8.50000000E-01  8.50000000E-01  8.50000000E-01  8.50000000E-01  8.50000000E-01
  8.50000000E-01  8.50000000E-01  8.50000000E-01  8.50000000E-01  8.50000000E-01
  8.50000000E-01  8.50000000E-01  8.50000000E-01  8.50000000E-01  8.50000000E-01
  8.50000000E-01  8.50000000E-01  8.50000000E-01  8.50000000E-01  8.50000000E-01
  8.50000000E-01  8.50000000E-01  8.50000000E-01  8.50000000E-01  8.50000000E-01
  8.50000000E-01  8.50000000E-01  8.50000000E-01  8.50000000E-01  8.50000000E-01
  8.50000000E-01  8.50000000E-01  8.50000000E-01  8.50000000E-01  8.50000000E-01
  8.50000000E-01  8.50000000E-01  8.50000000E-01  8.50000000E-01  8.50000000E-01
  8.50000000E-01  8.50000000E-01  8.50000000E-01  8.50000000E-01  8.50000000E-01
  8.50000000E-01  8.50000000E-01  8.50000000E-01  8.50000000E-01  8.50000000E-01
  8.50000000E-01  8.50000000E-01  8.50000000E-01  8.50000000E-01  8.50000000E-01
  8.50000000E-01  8.50000000E-01  8.50000000E-01  8.50000000E-01  8.50000000E-01
  8.50000000E-01  8.50000000E-01  8.50000000E-01  8.50000000E-01  8.50000000E-01
  8.50000000E-01  8.50000000E-01  8.50000000E-01  8.50000000E-01  8.50000000E-01
  8.50000000E-01  8.50000000E-01  8.50000000E-01  8.50000000E-01  8.50000000E-01
  8.50000000E-01  8.50000000E-01  8.50000000E-01  8.50000000E-01  8.50000000E-01
  8.50000000E-01  8.50000000E-01  8.50000000E-01  8.50000000E-01  8.50000000E-01
  8.50000000E-01  8.50000000E-01  8.50000000E-01  8.50000000E-01  8.50000000E-01
  8.50000000E-01  8.50000000E-01  8.50000000E-01  8.50000000E-01  8.50000000E-01
  8.50000000E-01  8.50000000E-01  8.50000000E-01  8.50000000E-01  8.50000000E-01
  8.50000000E-01  8.50000000E-01  8.50000000E-01  8.50000000E-01  8.50000000E-01
  8.50000000E-01  8.50000000E-01  8.50000000E-01  8.50000000E-01  8.50000000E-01
  8.50000000E-01  8.50000000E-01  8.50000000E-01  8.50000000E-01  8.50000000E-01
  8.50000000E-01  8.50000000E-01  8.50000000E-01  8.50000000E-01  8.50000000E-01
  8.50000000E-01  8.50000000E-01  8.50000000E-01  8.50000000E-01  8.50000000E-01
  8.50000000E-01  8.50000000E-01  8.50000000E-01  8.50000000E-01  8.50000000E-01
  8.50000000E-01  8.50000000E-01  8.50000000E-01  8.50000000E-01  8.50000000E-01
  8.50000000E-01  8.50000000E-01  8.50000000E-01  8.50000000E-01  8.50000000E-01
  8.50000000E-01  8.50000000E-01  8.50000000E-01  8.50000000E-01  8.50000000E-01
  8.50000000E-01  8.50000000E-01  8.50000000E-01  8.50000000E-01  8.50000000E-01
  8.50000000E-01  8.50000000E-01  8.50000000E-01  8.50000000E-01  8.50000000E-01
  8.50000000E-01  8.50000000E-01  8.50000000E-01  8.50000000E-01  8.50000000E-01
  8.50000000E-01  8.50000000E-01  8.50000000E-01  8.50000000E-01  8.50000000E-01
  8.50000000E-01  8.50000000E-01  8.50000000E-01  8.50000000E-01  8.50000000E-01
  8.50000000E-01  8.50000000E-01  8.50000000E-01  8.50000000E-01  8.50000000E-01
  8.50000000E-01  8.50000000E-01  8.50000000E-01  8.50000000E-01  8.50000000E-01
  8.50000000E-01  8.50000000E-01  8.50000000E-01  8.50000000E-01  8.50000000E-01
  8.50000000E-01  8.50000000E-01  8.50000000E-01  8.50000000E-01  8.50000000E-01
  8.50000000E-01  8.50000000E-01  8.50000000E-01  8.50000000E-01  8.50000000E-01
  8.50000000E-01  8.50000000E-01  8.50000000E-01  8.50000000E-01  8.50000000E-01
  8.50000000E-01  8.50000000E-01  8.50000000E-01  8.50000000E-01  8.50000000E-01
  8.50000000E-01  8.50000000E-01  8.50000000E-01  8.50000000E-01  8.50000000E-01
  8.50000000E-01  8.50000000E-01  8.50000000E-01  8.50000000E-01  8.50000000E-01
  8.50000000E-01  8.50000000E-01  8.50000000E-01  8.50000000E-01  8.50000000E-01
  8.50000000E-01  8.50000000E-01  8.50000000E-01  8.50000000E-01  8.50000000E-01
  8.50000000E-01  8.50000000E-01  8.50000000E-01  8.50000000E-01  8.50000000E-01
  8.50000000E-01  8.50000000E-01  8.50000000E-01  8.50000000E-01  8.50000000E-01
  8.50000000E-01  8.50000000E-01  8.50000000E-01  8.50000000E-01  8.50000000E-01
  8.50000000E-01  8.50000000E-01  8.50000000E-01  8.50000000E-01  8.50000000E-01
  8.50000000E-01  8.50000000E-01  8.50000000E-01  8.50000000E-01  8.50000000E-01
  8.50000000E-01  8.50000000E-01  8.50000000E-01  8.50000000E-01  8.50000000E-01
  8.50000000E-01  8.50000000E-01  8.50000000E-01  8.50000000E-01  8.50000000E-01
  8.50000000E-01  8.50000000E-01  8.50000000E-01  8.50000000E-01  8.50000000E-01
  8.50000000E-01  8.50000000E-01  8.50000000E-01  8.50000000E-01  8.50000000E-01
  8.50000000E-01  8.50000000E-01  8.50000000E-01  8.50000000E-01  8.50000000E-01
  8.50000000E-01  8.50000000E-01  8.50000000E-01  8.50000000E-01  8.50000000E-01
  8.50000000E-01  8.50000000E-01  8.50000000E-01  8.50000000E-01  8.50000000E-01
  8.50000000E-01  8.50000000E-01  8.50000000E-01  8.50000000E-01  8.50000000E-01
  8.50000000E-01  8.50000000E-01  8.50000000E-01  8.50000000E-01  8.50000000E-01
  8.50000000E-01  8.50000000E-01  8.50000000E-01  8.50000000E-01  8.50000000E-01
  8.50000000E-01  8.50000000E-01  8.50000000E-01  8.50000000E-01  8.50000000E-01
  8.50000000E-01  8.50000000E-01  8.50000000E-01  8.50000000E-01  8.50000000E-01
  8.50000000E-01  8.50000000E-01  8.50000000E-01  8.50000000E-01  8.50000000E-01
  8.50000000E-01  8.50000000E-01  8.50000000E-01  8.50000000E-01  8.50000000E-01
  8.50000000E-01  8.50000000E-01  8.50000000E-01  8.50000000E-01  8.50000000E-01
  8.50000000E-01  8.50000000E-01  8.50000000E-01  8.50000000E-01  8.50000000E-01
  8.50000000E-01  8.50000000E-01  8.50000000E-01  8.50000000E-01  8.50000000E-01
  8.50000000E-01  8.50000000E-01  8.50000000E-01  8.50000000E-01  8.50000000E-01
  8.50000000E-01  8.50000000E-01  8.50000000E-01  8.50000000E-01  8.50000000E-01
  8.50000000E-01  8.50000000E-01  8.50000000E-01  8.50000000E-01  8.50000000E-01
  8.50000000E-01  8.50000000E-01  8.50000000E-01  8.50000000E-01  8.50000000E-01
  8.50000000E-01  8.50000000E-01  8.50000000E-01  8.50000000E-01  8.50000000E-01
  8.50000000E-01  8.50000000E-01  8.50000000E-01  8.50000000E-01  8.50000000E-01
  8.50000000E-01  8.50000000E-01  8.50000000E-01  8.50000000E-01  8.50000000E-01
  8.50000000E-01  8.50000000E-01  8.50000000E-01  8.50000000E-01  8.50000000E-01
  8.50000000E-01  8.50000000E-01  8.50000000E-01  8.50000000E-01  8.50000000E-01
  8.50000000E-01  8.50000000E-01  8.50000000E-01  8.50000000E-01  8.50000000E-01
  8.50000000E-01  8.50000000E-01  8.50000000E-01  8.50000000E-01  8.50000000E-01
  8.50000000E-01  8.50000000E-01  8.50000000E-01  8.50000000E-01  8.50000000E-01
  8.50000000E-01  8.50000000E-01  8.50000000E-01  8.50000000E-01  8.50000000E-01
  8.50000000E-01  8.50000000E-01  8.50000000E-01  8.50000000E-01  8.50000000E-01
  8.50000000E-01  8.50000000E-01  8.50000000E-01  8.50000000E-01  8.50000000E-01
  8.50000000E-01  8.50000000E-01  8.50000000E-01  8.50000000E-01  8.50000000E-01
  8.50000000E-01  8.50000000E-01  8.50000000E-01  8.50000000E-01  8.50000000E-01
  8.50000000E-01  8.50000000E-01  8.50000000E-01  8.50000000E-01  8.50000000E-01
  8.50000000E-01  8.50000000E-01  8.50000000E-01  8.50000000E-01  8.50000000E-01
  8.50000000E-01  8.50000000E-01  8.50000000E-01  8.50000000E-01  8.50000000E-01
  8.50000000E-01  8.50000000E-01  8.50000000E-01  8.50000000E-01  8.50000000E-01
  8.50000000E-01  8.50000000E-01  8.50000000E-01  8.50000000E-01  8.50000000E-01
  8.50000000E-01  8.50000000E-01  8.50000000E-01  8.50000000E-01  8.50000000E-01
  8.50000000E-01  8.50000000E-01  8.50000000E-01  8.50000000E-01  8.50000000E-01
  8.50000000E-01  8.50000000E-01  8.50000000E-01  8.50000000E-01  8.50000000E-01
  8.50000000E-01  8.50000000E-01  8.50000000E-01  8.50000000E-01  8.50000000E-01
  8.50000000E-01  8.50000000E-01  8.50000000E-01  8.50000000E-01  8.50000000E-01
  8.50000000E-01  8.50000000E-01  8.50000000E-01  8.50000000E-01  8.50000000E-01
  8.50000000E-01  8.50000000E-01  8.50000000E-01  8.50000000E-01  8.50000000E-01
  8.50000000E-01  8.50000000E-01  8.50000000E-01  8.50000000E-01  8.50000000E-01
  8.50000000E-01  8.50000000E-01  8.50000000E-01  8.50000000E-01  8.50000000E-01
  8.50000000E-01  8.50000000E-01  8.50000000E-01  8.50000000E-01  8.50000000E-01
  8.50000000E-01  8.50000000E-01  8.50000000E-01  8.50000000E-01  8.50000000E-01
  8.50000000E-01  8.50000000E-01  8.50000000E-01  8.50000000E-01  8.50000000E-01
  8.50000000E-01  8.50000000E-01  8.50000000E-01  8.50000000E-01  8.50000000E-01
  8.50000000E-01  8.50000000E-01  8.50000000E-01  8.50000000E-01  8.50000000E-01
  8.50000000E-01  8.50000000E-01  8.50000000E-01  8.50000000E-01  8.50000000E-01
  8.50000000E-01  8.50000000E-01  8.50000000E-01  8.50000000E-01  8.50000000E-01
  8.50000000E-01  8.50000000E-01  8.50000000E-01  8.50000000E-01  8.50000000E-01
  8.50000000E-01  8.50000000E-01  8.50000000E-01  8.50000000E-01  8.50000000E-01
  8.50000000E-01  8.50000000E-01  8.50000000E-01  8.50000000E-01  8.50000000E-01
  8.50000000E-01  8.50000000E-01  8.50000000E-01  8.50000000E-01  8.50000000E-01
  8.50000000E-01  8.50000000E-01  8.50000000E-01  8.50000000E-01  8.50000000E-01
  8.50000000E-01  8.50000000E-01  8.50000000E-01  8.50000000E-01  8.50000000E-01
  8.50000000E-01  8.50000000E-01  8.50000000E-01  8.50000000E-01  8.50000000E-01
  8.50000000E-01  8.50000000E-01  8.50000000E-01  8.50000000E-01  8.50000000E-01
  8.50000000E-01  8.50000000E-01  8.50000000E-01  8.50000000E-01  8.50000000E-01
  8.50000000E-01  8.50000000E-01  8.50000000E-01  8.50000000E-01  8.50000000E-01
  8.50000000E-01  8.50000000E-01  8.50000000E-01  8.50000000E-01  8.50000000E-01
  8.50000000E-01  8.50000000E-01  8.50000000E-01  8.50000000E-01  8.50000000E-01
  8.50000000E-01  8.50000000E-01  8.50000000E-01  8.50000000E-01  8.50000000E-01
  8.50000000E-01  8.50000000E-01  8.50000000E-01  8.50000000E-01  8.50000000E-01
  8.50000000E-01  8.50000000E-01  8.50000000E-01  8.50000000E-01  8.50000000E-01
  8.50000000E-01  8.50000000E-01  8.50000000E-01  8.50000000E-01  8.50000000E-01
  8.50000000E-01  8.50000000E-01  8.50000000E-01  8.50000000E-01  8.50000000E-01
  8.50000000E-01  8.50000000E-01  8.50000000E-01  8.50000000E-01  8.50000000E-01
  8.50000000E-01  8.50000000E-01  8.50000000E-01  8.50000000E-01  8.50000000E-01
  8.50000000E-01  8.50000000E-01  8.50000000E-01  8.50000000E-01  8.50000000E-01
  8.50000000E-01  8.50000000E-01  8.50000000E-01  8.50000000E-01  8.50000000E-01
  8.50000000E-01  8.50000000E-01  8.50000000E-01  8.50000000E-01  8.50000000E-01
  8.50000000E-01  8.50000000E-01  8.50000000E-01  8.50000000E-01  8.50000000E-01
  8.50000000E-01  8.50000000E-01  8.50000000E-01  8.50000000E-01  8.50000000E-01
  8.50000000E-01  8.50000000E-01  8.50000000E-01  8.50000000E-01  8.50000000E-01
  8.50000000E-01  8.50000000E-01  8.50000000E-01  8.50000000E-01  8.50000000E-01
  8.50000000E-01  8.50000000E-01  8.50000000E-01  8.50000000E-01  8.50000000E-01
  8.50000000E-01  8.50000000E-01  8.50000000E-01  8.50000000E-01  8.50000000E-01
  8.50000000E-01  8.50000000E-01  8.50000000E-01  8.50000000E-01  8.50000000E-01
  8.50000000E-01  8.50000000E-01  8.50000000E-01  8.50000000E-01  8.50000000E-01
  8.50000000E-01  8.50000000E-01  8.50000000E-01  8.50000000E-01  8.50000000E-01
  8.50000000E-01  8.50000000E-01  8.50000000E-01  8.50000000E-01  8.50000000E-01
  8.50000000E-01  8.50000000E-01  8.50000000E-01  8.50000000E-01  8.50000000E-01
  8.50000000E-01  8.50000000E-01  8.50000000E-01  8.50000000E-01  8.50000000E-01
  8.50000000E-01  8.50000000E-01  8.50000000E-01  8.50000000E-01  8.50000000E-01
  8.50000000E-01  8.50000000E-01  8.50000000E-01  8.50000000E-01  8.50000000E-01
  8.50000000E-01  8.50000000E-01  8.50000000E-01  8.50000000E-01  8.50000000E-01
  8.50000000E-01  8.50000000E-01  8.50000000E-01  8.50000000E-01  8.50000000E-01
  8.50000000E-01  8.50000000E-01  8.50000000E-01  8.50000000E-01  8.50000000E-01
  8.50000000E-01  8.50000000E-01  8.50000000E-01  8.50000000E-01  8.50000000E-01
  8.50000000E-01  8.50000000E-01  8.50000000E-01  8.50000000E-01  8.50000000E-01
  8.50000000E-01  8.50000000E-01  8.50000000E-01  8.50000000E-01  8.50000000E-01
  8.50000000E-01  8.50000000E-01  8.50000000E-01  8.50000000E-01  8.50000000E-01
  8.50000000E-01  8.50000000E-01  8.50000000E-01  8.50000000E-01  8.50000000E-01
  8.50000000E-01  8.50000000E-01  8.50000000E-01  8.50000000E-01  8.50000000E-01
  8.50000000E-01  8.50000000E-01  8.50000000E-01  8.50000000E-01  8.50000000E-01
  8.50000000E-01  8.50000000E-01  8.50000000E-01  8.50000000E-01  8.50000000E-01
  8.50000000E-01  8.50000000E-01  8.50000000E-01  8.50000000E-01  8.50000000E-01
  8.50000000E-01  8.50000000E-01  8.50000000E-01  8.50000000E-01  8.50000000E-01
  8.50000000E-01  8.50000000E-01  8.50000000E-01  8.50000000E-01  8.50000000E-01
  8.50000000E-01  8.50000000E-01  8.50000000E-01  8.50000000E-01  8.50000000E-01
  8.50000000E-01  8.50000000E-01  8.50000000E-01  8.50000000E-01  8.50000000E-01
  8.50000000E-01  8.50000000E-01  8.50000000E-01  8.50000000E-01  8.50000000E-01
  8.50000000E-01  8.50000000E-01  8.50000000E-01  8.50000000E-01  8.50000000E-01
  8.50000000E-01  8.50000000E-01  8.50000000E-01  8.50000000E-01  8.50000000E-01
  8.50000000E-01  8.50000000E-01  8.50000000E-01  8.50000000E-01  8.50000000E-01
  8.50000000E-01  8.50000000E-01  8.50000000E-01  8.50000000E-01  8.50000000E-01
  8.50000000E-01  8.50000000E-01  8.50000000E-01  8.50000000E-01  8.50000000E-01
  8.50000000E-01  8.50000000E-01  8.50000000E-01  8.50000000E-01  8.50000000E-01
  8.50000000E-01  8.50000000E-01  8.50000000E-01  8.50000000E-01  8.50000000E-01
  8.50000000E-01  8.50000000E-01  8.50000000E-01  8.50000000E-01  8.50000000E-01
  8.50000000E-01  8.50000000E-01  8.50000000E-01  8.50000000E-01  8.50000000E-01
  8.50000000E-01  8.50000000E-01  8.50000000E-01  8.50000000E-01  8.50000000E-01
  8.50000000E-01  8.50000000E-01  8.50000000E-01  8.50000000E-01  8.50000000E-01
  8.50000000E-01  8.50000000E-01  8.50000000E-01  8.50000000E-01  8.50000000E-01
  8.50000000E-01  8.50000000E-01  8.50000000E-01  8.50000000E-01  8.50000000E-01
  8.50000000E-01  8.50000000E-01  8.50000000E-01  8.50000000E-01  8.50000000E-01
  8.50000000E-01  8.50000000E-01  8.50000000E-01  8.50000000E-01  8.50000000E-01
  8.50000000E-01  8.50000000E-01  8.50000000E-01  8.50000000E-01  8.50000000E-01
  8.50000000E-01  8.50000000E-01  8.50000000E-01  8.50000000E-01  8.50000000E-01
  8.50000000E-01  8.50000000E-01  8.50000000E-01  8.50000000E-01  8.50000000E-01
  8.50000000E-01  8.50000000E-01  8.50000000E-01  8.50000000E-01  8.50000000E-01
  8.50000000E-01  8.50000000E-01  8.50000000E-01  8.50000000E-01  8.50000000E-01
  8.50000000E-01  8.50000000E-01  8.50000000E-01  8.50000000E-01  8.50000000E-01
  8.50000000E-01  8.50000000E-01  8.50000000E-01  8.50000000E-01  8.50000000E-01
  8.50000000E-01  8.50000000E-01  8.50000000E-01  8.50000000E-01  8.50000000E-01
  8.50000000E-01  8.50000000E-01  8.50000000E-01  8.50000000E-01  8.50000000E-01
  8.50000000E-01  8.50000000E-01  8.50000000E-01  8.50000000E-01  8.50000000E-01
  8.50000000E-01  8.50000000E-01  8.50000000E-01  8.50000000E-01  8.50000000E-01
  8.50000000E-01  8.50000000E-01  8.50000000E-01  8.50000000E-01  8.50000000E-01
  8.50000000E-01  8.50000000E-01  8.50000000E-01  8.50000000E-01  8.50000000E-01
  8.50000000E-01  8.50000000E-01  8.50000000E-01  8.50000000E-01  8.50000000E-01
  8.50000000E-01  8.50000000E-01  8.50000000E-01  8.50000000E-01  8.50000000E-01
  8.50000000E-01  8.50000000E-01  8.50000000E-01  8.50000000E-01  8.50000000E-01
  8.50000000E-01  8.50000000E-01  8.50000000E-01  8.50000000E-01  8.50000000E-01
  8.50000000E-01  8.50000000E-01  8.50000000E-01  8.50000000E-01  8.50000000E-01
  8.50000000E-01  8.50000000E-01  8.50000000E-01  8.50000000E-01  8.50000000E-01
  8.50000000E-01  8.50000000E-01  8.50000000E-01  8.50000000E-01  8.50000000E-01
  8.50000000E-01  8.50000000E-01  8.50000000E-01  8.50000000E-01  8.50000000E-01
  8.50000000E-01  8.50000000E-01  8.50000000E-01  8.50000000E-01  8.50000000E-01
  8.50000000E-01  8.50000000E-01  8.50000000E-01  8.50000000E-01  8.50000000E-01
  8.50000000E-01  8.50000000E-01  8.50000000E-01  8.50000000E-01  8.50000000E-01
  8.50000000E-01  8.50000000E-01  8.50000000E-01  8.50000000E-01  8.50000000E-01
  8.50000000E-01  8.50000000E-01  8.50000000E-01  8.50000000E-01  8.50000000E-01
  8.50000000E-01  8.50000000E-01  8.50000000E-01  8.50000000E-01  8.50000000E-01
  8.50000000E-01  8.50000000E-01  8.50000000E-01  8.50000000E-01  8.50000000E-01
  8.50000000E-01  8.50000000E-01  8.50000000E-01  8.50000000E-01  8.50000000E-01
  8.50000000E-01  8.50000000E-01  8.50000000E-01  8.50000000E-01  8.50000000E-01
  8.50000000E-01  8.50000000E-01  8.50000000E-01  8.50000000E-01  8.50000000E-01
  8.50000000E-01  8.50000000E-01  8.50000000E-01  8.50000000E-01  8.50000000E-01
  8.50000000E-01  8.50000000E-01  8.50000000E-01  8.50000000E-01  8.50000000E-01
  8.50000000E-01  8.50000000E-01  8.50000000E-01  8.50000000E-01  8.50000000E-01
  8.50000000E-01  8.50000000E-01  8.50000000E-01  8.50000000E-01  8.50000000E-01
  8.50000000E-01  8.50000000E-01  8.50000000E-01  8.50000000E-01  8.50000000E-01
  8.50000000E-01  8.50000000E-01  8.50000000E-01  8.50000000E-01  8.50000000E-01
  8.50000000E-01  8.50000000E-01  8.50000000E-01  8.50000000E-01  8.50000000E-01
  8.50000000E-01  8.50000000E-01  8.50000000E-01  8.50000000E-01  8.50000000E-01
  8.50000000E-01  8.50000000E-01  8.50000000E-01  8.50000000E-01  8.50000000E-01
  8.50000000E-01  8.50000000E-01  8.50000000E-01  8.50000000E-01  8.50000000E-01
  8.50000000E-01  8.50000000E-01  8.50000000E-01  8.50000000E-01  8.50000000E-01
  8.50000000E-01  8.50000000E-01  8.50000000E-01  8.50000000E-01  8.50000000E-01
  8.50000000E-01  8.50000000E-01  8.50000000E-01  8.50000000E-01  8.50000000E-01
  8.50000000E-01  8.50000000E-01  8.50000000E-01  8.50000000E-01  8.50000000E-01
  8.50000000E-01  8.50000000E-01  8.50000000E-01  8.50000000E-01  8.50000000E-01
  8.50000000E-01  8.50000000E-01  8.50000000E-01  8.50000000E-01  8.50000000E-01
  8.50000000E-01  8.50000000E-01  8.50000000E-01  8.50000000E-01  8.50000000E-01
  8.50000000E-01  8.50000000E-01  8.50000000E-01  8.50000000E-01  8.50000000E-01
  8.50000000E-01  8.50000000E-01  8.50000000E-01  8.50000000E-01  8.50000000E-01
  8.50000000E-01  8.50000000E-01  8.50000000E-01  8.50000000E-01  8.50000000E-01
  8.50000000E-01  8.50000000E-01  8.50000000E-01  8.50000000E-01  8.50000000E-01
  8.50000000E-01  8.50000000E-01  8.50000000E-01  8.50000000E-01  8.50000000E-01
  8.50000000E-01  8.50000000E-01  8.50000000E-01  8.50000000E-01  8.50000000E-01
  8.50000000E-01  8.50000000E-01  8.50000000E-01  8.50000000E-01  8.50000000E-01
  8.50000000E-01  8.50000000E-01  8.50000000E-01  8.50000000E-01  8.50000000E-01
  8.50000000E-01  8.50000000E-01  8.50000000E-01  8.50000000E-01  8.50000000E-01
  8.50000000E-01  8.50000000E-01  8.50000000E-01  8.50000000E-01  8.50000000E-01
  8.50000000E-01  8.50000000E-01  8.50000000E-01  8.50000000E-01  8.50000000E-01
  8.50000000E-01  8.50000000E-01  8.50000000E-01  8.50000000E-01  8.50000000E-01
  8.50000000E-01  8.50000000E-01  8.50000000E-01  8.50000000E-01  8.50000000E-01
  8.50000000E-01  8.50000000E-01  8.50000000E-01  8.50000000E-01  8.50000000E-01
  8.50000000E-01  8.50000000E-01  8.50000000E-01  8.50000000E-01  8.50000000E-01
  8.50000000E-01  8.50000000E-01  8.50000000E-01  8.50000000E-01  8.50000000E-01
  8.50000000E-01  8.50000000E-01  8.50000000E-01  8.50000000E-01  8.50000000E-01
  8.50000000E-01  8.50000000E-01  8.50000000E-01  8.50000000E-01  8.50000000E-01
  8.50000000E-01  8.50000000E-01  8.50000000E-01  8.50000000E-01  8.50000000E-01
  8.50000000E-01  8.50000000E-01  8.50000000E-01  8.50000000E-01  8.50000000E-01
  8.50000000E-01  8.50000000E-01  8.50000000E-01  8.50000000E-01  8.50000000E-01
  8.50000000E-01  8.50000000E-01  8.50000000E-01  8.50000000E-01  8.50000000E-01
  8.50000000E-01  8.50000000E-01  8.50000000E-01  8.50000000E-01  8.50000000E-01
  8.50000000E-01  8.50000000E-01  8.50000000E-01  8.50000000E-01  8.50000000E-01
  8.50000000E-01  8.50000000E-01  8.50000000E-01  8.50000000E-01  8.50000000E-01
  8.50000000E-01  8.50000000E-01  8.50000000E-01  8.50000000E-01  8.50000000E-01
  8.50000000E-01  8.50000000E-01  8.50000000E-01  8.50000000E-01  8.50000000E-01
  8.50000000E-01  8.50000000E-01  8.50000000E-01  8.50000000E-01  8.50000000E-01
  8.50000000E-01  8.50000000E-01  8.50000000E-01  8.50000000E-01  8.50000000E-01
  8.50000000E-01  8.50000000E-01  8.50000000E-01  8.50000000E-01  8.50000000E-01
  8.50000000E-01  8.50000000E-01  8.50000000E-01  8.50000000E-01  8.50000000E-01
  8.50000000E-01  8.50000000E-01  8.50000000E-01  8.50000000E-01  8.50000000E-01
  8.50000000E-01  8.50000000E-01  8.50000000E-01  8.50000000E-01  8.50000000E-01
  8.50000000E-01  8.50000000E-01  8.50000000E-01  8.50000000E-01  8.50000000E-01
  8.50000000E-01  8.50000000E-01  8.50000000E-01  8.50000000E-01  8.50000000E-01
  8.50000000E-01  8.50000000E-01  8.50000000E-01  8.50000000E-01  8.50000000E-01
  8.50000000E-01  8.50000000E-01  8.50000000E-01  8.50000000E-01  8.50000000E-01
  8.50000000E-01  8.50000000E-01  8.50000000E-01  8.50000000E-01  8.50000000E-01
  8.50000000E-01  8.50000000E-01  8.50000000E-01  8.50000000E-01  8.50000000E-01
  8.50000000E-01  8.50000000E-01  8.50000000E-01  8.50000000E-01  8.50000000E-01
  8.50000000E-01  8.50000000E-01  8.50000000E-01  8.50000000E-01  8.50000000E-01
  8.50000000E-01  8.50000000E-01  8.50000000E-01  8.50000000E-01  8.50000000E-01
  8.50000000E-01  8.50000000E-01  8.50000000E-01  8.50000000E-01  8.50000000E-01
  8.50000000E-01  8.50000000E-01  8.50000000E-01  8.50000000E-01  8.50000000E-01
  8.50000000E-01  8.50000000E-01  8.50000000E-01  8.50000000E-01  8.50000000E-01
  8.50000000E-01  8.50000000E-01  8.50000000E-01  8.50000000E-01  8.50000000E-01
  8.50000000E-01  8.50000000E-01  8.50000000E-01  8.50000000E-01  8.50000000E-01
  8.50000000E-01  8.50000000E-01  8.50000000E-01  8.50000000E-01  8.50000000E-01
  8.50000000E-01  8.50000000E-01  8.50000000E-01  8.50000000E-01  8.50000000E-01
  8.50000000E-01  8.50000000E-01  8.50000000E-01  8.50000000E-01  8.50000000E-01
  8.50000000E-01  8.50000000E-01  8.50000000E-01  8.50000000E-01  8.50000000E-01
  8.50000000E-01  8.50000000E-01  8.50000000E-01  8.50000000E-01  8.50000000E-01
  8.50000000E-01  8.50000000E-01  8.50000000E-01  8.50000000E-01  8.50000000E-01
  8.50000000E-01  8.50000000E-01  8.50000000E-01  8.50000000E-01  8.50000000E-01
  8.50000000E-01  8.50000000E-01  8.50000000E-01  8.50000000E-01  8.50000000E-01
  8.50000000E-01  8.50000000E-01  8.50000000E-01  8.50000000E-01  8.50000000E-01
  8.50000000E-01  8.50000000E-01  8.50000000E-01  8.50000000E-01  8.50000000E-01
  8.50000000E-01  8.50000000E-01  8.50000000E-01  8.50000000E-01  8.50000000E-01
  8.50000000E-01  8.50000000E-01  8.50000000E-01  8.50000000E-01  8.50000000E-01
  8.50000000E-01  8.50000000E-01  8.50000000E-01  8.50000000E-01  8.50000000E-01
  8.50000000E-01  8.50000000E-01  8.50000000E-01  8.50000000E-01  8.50000000E-01
  8.50000000E-01  8.50000000E-01  8.50000000E-01  8.50000000E-01  8.50000000E-01
  8.50000000E-01  8.50000000E-01  8.50000000E-01  8.50000000E-01  8.50000000E-01
  8.50000000E-01  8.50000000E-01  8.50000000E-01  8.50000000E-01  8.50000000E-01
  8.50000000E-01  8.50000000E-01  8.50000000E-01  8.50000000E-01  8.50000000E-01
  8.50000000E-01  8.50000000E-01  8.50000000E-01  8.50000000E-01  8.50000000E-01
  8.50000000E-01  8.50000000E-01  8.50000000E-01  8.50000000E-01  8.50000000E-01
  8.50000000E-01  8.50000000E-01  8.50000000E-01  8.50000000E-01  8.50000000E-01
  8.50000000E-01  8.50000000E-01  8.50000000E-01  8.50000000E-01  8.50000000E-01
  8.50000000E-01  8.50000000E-01  8.50000000E-01  8.50000000E-01  8.50000000E-01
  8.50000000E-01  8.50000000E-01  8.50000000E-01  8.50000000E-01  8.50000000E-01
  8.50000000E-01  8.50000000E-01  8.50000000E-01  8.50000000E-01  8.50000000E-01
  8.50000000E-01  8.50000000E-01  8.50000000E-01  8.50000000E-01  8.50000000E-01
  8.50000000E-01  8.50000000E-01  8.50000000E-01  8.50000000E-01  8.50000000E-01
  8.50000000E-01  8.50000000E-01  8.50000000E-01  8.50000000E-01  8.50000000E-01
  8.50000000E-01  8.50000000E-01  8.50000000E-01  8.50000000E-01  8.50000000E-01
  8.50000000E-01  8.50000000E-01  8.50000000E-01  8.50000000E-01  8.50000000E-01
  8.50000000E-01  8.50000000E-01  8.50000000E-01  8.50000000E-01  8.50000000E-01
  8.50000000E-01  8.50000000E-01  8.50000000E-01  8.50000000E-01  8.50000000E-01
  8.50000000E-01  8.50000000E-01  8.50000000E-01  8.50000000E-01  8.50000000E-01
  8.50000000E-01  8.50000000E-01  8.50000000E-01  8.50000000E-01  8.50000000E-01
  8.50000000E-01  8.50000000E-01  8.50000000E-01  8.50000000E-01  8.50000000E-01
  8.50000000E-01  8.50000000E-01  8.50000000E-01  8.50000000E-01  8.50000000E-01
  8.50000000E-01  8.50000000E-01  8.50000000E-01  8.50000000E-01  8.50000000E-01
  8.50000000E-01  8.50000000E-01  8.50000000E-01  8.50000000E-01  8.50000000E-01
  8.50000000E-01  8.50000000E-01  8.50000000E-01  8.50000000E-01  8.50000000E-01
  8.50000000E-01  8.50000000E-01  8.50000000E-01  8.50000000E-01  8.50000000E-01
  8.50000000E-01  8.50000000E-01  8.50000000E-01  8.50000000E-01  8.50000000E-01
  8.50000000E-01  8.50000000E-01  8.50000000E-01  8.50000000E-01  8.50000000E-01
  8.50000000E-01  8.50000000E-01  8.50000000E-01  8.50000000E-01  8.50000000E-01
  8.50000000E-01  8.50000000E-01  8.50000000E-01  8.50000000E-01  8.50000000E-01
  8.50000000E-01  8.50000000E-01  8.50000000E-01  8.50000000E-01  8.50000000E-01
  8.50000000E-01  8.50000000E-01  8.50000000E-01  8.50000000E-01  8.50000000E-01
  8.50000000E-01  8.50000000E-01  8.50000000E-01  8.50000000E-01  8.50000000E-01
  8.50000000E-01  8.50000000E-01  8.50000000E-01  8.50000000E-01  8.50000000E-01
  8.50000000E-01  8.50000000E-01  8.50000000E-01  8.50000000E-01  8.50000000E-01
  8.50000000E-01  8.50000000E-01  8.50000000E-01  8.50000000E-01  8.50000000E-01
  8.50000000E-01  8.50000000E-01  8.50000000E-01  8.50000000E-01  8.50000000E-01
  8.50000000E-01  8.50000000E-01  8.50000000E-01  8.50000000E-01  8.50000000E-01
  8.50000000E-01  8.50000000E-01  8.50000000E-01  8.50000000E-01  8.50000000E-01
  8.50000000E-01  8.50000000E-01  8.50000000E-01  8.50000000E-01  8.50000000E-01
  8.50000000E-01  8.50000000E-01  8.50000000E-01  8.50000000E-01  8.50000000E-01
  8.50000000E-01  8.50000000E-01  8.50000000E-01  8.50000000E-01  8.50000000E-01
  8.50000000E-01  8.50000000E-01  8.50000000E-01  8.50000000E-01  8.50000000E-01
  8.50000000E-01  8.50000000E-01  8.50000000E-01  8.50000000E-01  8.50000000E-01
  8.50000000E-01  8.50000000E-01  8.50000000E-01  8.50000000E-01  8.50000000E-01
  8.50000000E-01  8.50000000E-01  8.50000000E-01  8.50000000E-01  8.50000000E-01
  8.50000000E-01  8.50000000E-01  8.50000000E-01  8.50000000E-01  8.50000000E-01
  8.50000000E-01  8.50000000E-01  8.50000000E-01  8.50000000E-01  8.50000000E-01
  8.50000000E-01  8.50000000E-01  8.50000000E-01  8.50000000E-01  8.50000000E-01
  8.50000000E-01  8.50000000E-01  8.50000000E-01  8.50000000E-01  8.50000000E-01
  8.50000000E-01  8.50000000E-01  8.50000000E-01  8.50000000E-01  8.50000000E-01
  8.50000000E-01  8.50000000E-01  8.50000000E-01  8.50000000E-01  8.50000000E-01
  8.50000000E-01  8.50000000E-01  8.50000000E-01  8.50000000E-01  8.50000000E-01
  8.50000000E-01  8.50000000E-01  8.50000000E-01  8.50000000E-01  8.50000000E-01
  8.50000000E-01  8.50000000E-01  8.50000000E-01  8.50000000E-01  8.50000000E-01
  8.50000000E-01  8.50000000E-01  8.50000000E-01  8.50000000E-01  8.50000000E-01
  8.50000000E-01  8.50000000E-01  8.50000000E-01  8.50000000E-01  8.50000000E-01
  8.50000000E-01  8.50000000E-01  8.50000000E-01  8.50000000E-01  8.50000000E-01
  8.50000000E-01  8.50000000E-01  8.50000000E-01  8.50000000E-01  8.50000000E-01
  8.50000000E-01  8.50000000E-01  8.50000000E-01  8.50000000E-01  8.50000000E-01
  8.50000000E-01  8.50000000E-01  8.50000000E-01  8.50000000E-01  8.50000000E-01
  8.50000000E-01  8.50000000E-01  8.50000000E-01  8.50000000E-01  8.50000000E-01
  8.50000000E-01  8.50000000E-01  8.50000000E-01  8.50000000E-01  8.50000000E-01
  8.50000000E-01  8.50000000E-01  8.50000000E-01  8.50000000E-01  8.50000000E-01
  8.50000000E-01  8.50000000E-01  8.50000000E-01  8.50000000E-01  8.50000000E-01
  8.50000000E-01  8.50000000E-01  8.50000000E-01  8.50000000E-01  8.50000000E-01
  8.50000000E-01  8.50000000E-01  8.50000000E-01  8.50000000E-01  8.50000000E-01
  8.50000000E-01  8.50000000E-01  8.50000000E-01  8.50000000E-01  8.50000000E-01
  8.50000000E-01  8.50000000E-01  8.50000000E-01  8.50000000E-01  8.50000000E-01
  8.50000000E-01  8.50000000E-01  8.50000000E-01  8.50000000E-01  8.50000000E-01
  8.50000000E-01  8.50000000E-01  8.50000000E-01  8.50000000E-01  8.50000000E-01
  8.50000000E-01  8.50000000E-01  8.50000000E-01  8.50000000E-01  8.50000000E-01
  8.50000000E-01  8.50000000E-01  8.50000000E-01  8.50000000E-01  8.50000000E-01
  8.50000000E-01  8.50000000E-01  8.50000000E-01  8.50000000E-01  8.50000000E-01
  8.50000000E-01  8.50000000E-01  8.50000000E-01  8.50000000E-01  8.50000000E-01
  8.50000000E-01  8.50000000E-01  8.50000000E-01  8.50000000E-01  8.50000000E-01
  8.50000000E-01  8.50000000E-01  8.50000000E-01  8.50000000E-01  8.50000000E-01
  8.50000000E-01  8.50000000E-01  8.50000000E-01  8.50000000E-01  8.50000000E-01
  8.50000000E-01  8.50000000E-01  8.50000000E-01  8.50000000E-01  8.50000000E-01
  8.50000000E-01  8.50000000E-01  8.50000000E-01  8.50000000E-01  8.50000000E-01
  8.50000000E-01  8.50000000E-01  8.50000000E-01  8.50000000E-01  8.50000000E-01
  8.50000000E-01  8.50000000E-01  8.50000000E-01  8.50000000E-01  8.50000000E-01
  8.50000000E-01  8.50000000E-01  8.50000000E-01  8.50000000E-01  8.50000000E-01
  8.50000000E-01  8.50000000E-01  8.50000000E-01  8.50000000E-01  8.50000000E-01
  8.50000000E-01  8.50000000E-01  8.50000000E-01  8.50000000E-01  8.50000000E-01
  8.50000000E-01  8.50000000E-01  8.50000000E-01  8.50000000E-01  8.50000000E-01
  8.50000000E-01  8.50000000E-01  8.50000000E-01  8.50000000E-01  8.50000000E-01
  8.50000000E-01  8.50000000E-01  8.50000000E-01  8.50000000E-01  8.50000000E-01
  8.50000000E-01  8.50000000E-01  8.50000000E-01  8.50000000E-01  8.50000000E-01
  8.50000000E-01  8.50000000E-01  8.50000000E-01  8.50000000E-01  8.50000000E-01
  8.50000000E-01  8.50000000E-01  8.50000000E-01  8.50000000E-01  8.50000000E-01
  8.50000000E-01  8.50000000E-01  8.50000000E-01  8.50000000E-01  8.50000000E-01
  8.50000000E-01  8.50000000E-01  8.50000000E-01  8.50000000E-01  8.50000000E-01
  8.50000000E-01  8.50000000E-01  8.50000000E-01  8.50000000E-01  8.50000000E-01
  8.50000000E-01  8.50000000E-01  8.50000000E-01  8.50000000E-01  8.50000000E-01
  8.50000000E-01  8.50000000E-01  8.50000000E-01  8.50000000E-01  8.50000000E-01
  8.50000000E-01  8.50000000E-01  8.50000000E-01  8.50000000E-01  8.50000000E-01
  8.50000000E-01  8.50000000E-01  8.50000000E-01  8.50000000E-01  8.50000000E-01
  8.50000000E-01  8.50000000E-01  8.50000000E-01  8.50000000E-01  8.50000000E-01
  8.50000000E-01  8.50000000E-01  8.50000000E-01  8.50000000E-01  8.50000000E-01
  8.50000000E-01  8.50000000E-01  8.50000000E-01  8.50000000E-01  8.50000000E-01
  8.50000000E-01  8.50000000E-01  8.50000000E-01  8.50000000E-01  8.50000000E-01
  8.50000000E-01  8.50000000E-01  8.50000000E-01  8.50000000E-01  8.50000000E-01
  8.50000000E-01  8.50000000E-01  8.50000000E-01  8.50000000E-01  8.50000000E-01
  8.50000000E-01  8.50000000E-01  8.50000000E-01  8.50000000E-01  8.50000000E-01
  8.50000000E-01  8.50000000E-01  8.50000000E-01  8.50000000E-01  8.50000000E-01
  8.50000000E-01  8.50000000E-01  8.50000000E-01  8.50000000E-01  8.50000000E-01
  8.50000000E-01  8.50000000E-01  8.50000000E-01  8.50000000E-01  8.50000000E-01
  8.50000000E-01  8.50000000E-01  8.50000000E-01  8.50000000E-01  8.50000000E-01
  8.50000000E-01  8.50000000E-01  8.50000000E-01  8.50000000E-01  8.50000000E-01
  8.50000000E-01  8.50000000E-01  8.50000000E-01  8.50000000E-01  8.50000000E-01
  8.50000000E-01  8.50000000E-01  8.50000000E-01  8.50000000E-01  8.50000000E-01
  8.50000000E-01  8.50000000E-01  8.50000000E-01  8.50000000E-01  8.50000000E-01
  8.50000000E-01  8.50000000E-01  8.50000000E-01  8.50000000E-01  8.50000000E-01
  8.50000000E-01  8.50000000E-01  8.50000000E-01  8.50000000E-01  8.50000000E-01
  8.50000000E-01  8.50000000E-01  8.50000000E-01  8.50000000E-01  8.50000000E-01
  8.50000000E-01  8.50000000E-01  8.50000000E-01  8.50000000E-01  8.50000000E-01
  8.50000000E-01  8.50000000E-01  8.50000000E-01  8.50000000E-01  8.50000000E-01
  8.50000000E-01  8.50000000E-01  8.50000000E-01  8.50000000E-01  8.50000000E-01
  8.50000000E-01  8.50000000E-01  8.50000000E-01  8.50000000E-01  8.50000000E-01
  8.50000000E-01  8.50000000E-01  8.50000000E-01  8.50000000E-01  8.50000000E-01
  8.50000000E-01  8.50000000E-01  8.50000000E-01  8.50000000E-01  8.50000000E-01
  8.50000000E-01  8.50000000E-01  8.50000000E-01  8.50000000E-01  8.50000000E-01
  8.50000000E-01  8.50000000E-01  8.50000000E-01  8.50000000E-01  8.50000000E-01
  8.50000000E-01  8.50000000E-01  8.50000000E-01  8.50000000E-01  8.50000000E-01
  8.50000000E-01  8.50000000E-01  8.50000000E-01  8.50000000E-01  8.50000000E-01
  8.50000000E-01  8.50000000E-01  8.50000000E-01  8.50000000E-01  8.50000000E-01
  8.50000000E-01  8.50000000E-01  8.50000000E-01  8.50000000E-01  8.50000000E-01
  8.50000000E-01  8.50000000E-01  8.50000000E-01  8.50000000E-01  8.50000000E-01
  8.50000000E-01  8.50000000E-01  8.50000000E-01  8.50000000E-01  8.50000000E-01
  8.50000000E-01  8.50000000E-01  8.50000000E-01  8.50000000E-01  8.50000000E-01
  8.50000000E-01  8.50000000E-01  8.50000000E-01  8.50000000E-01  8.50000000E-01
  8.50000000E-01  8.50000000E-01  8.50000000E-01  8.50000000E-01  8.50000000E-01
  8.50000000E-01  8.50000000E-01  8.50000000E-01  8.50000000E-01  8.50000000E-01
  8.50000000E-01  8.50000000E-01  8.50000000E-01  8.50000000E-01  8.50000000E-01
  8.50000000E-01  8.50000000E-01  8.50000000E-01  8.50000000E-01  8.50000000E-01
  8.50000000E-01  8.50000000E-01  8.50000000E-01  8.50000000E-01  8.50000000E-01
  8.50000000E-01  8.50000000E-01  8.50000000E-01  8.50000000E-01  8.50000000E-01
  8.50000000E-01  8.50000000E-01  8.50000000E-01  8.50000000E-01  8.50000000E-01
  8.50000000E-01  8.50000000E-01  8.50000000E-01  8.50000000E-01  8.50000000E-01
  8.50000000E-01  8.50000000E-01  8.50000000E-01  8.50000000E-01  8.50000000E-01
  8.50000000E-01  8.50000000E-01  8.50000000E-01  8.50000000E-01  8.50000000E-01
  8.50000000E-01  8.50000000E-01  8.50000000E-01  8.50000000E-01  8.50000000E-01
  8.50000000E-01  8.50000000E-01  8.50000000E-01  8.50000000E-01  8.50000000E-01
  8.50000000E-01  8.50000000E-01  8.50000000E-01  8.50000000E-01  8.50000000E-01
  8.50000000E-01  8.50000000E-01  8.50000000E-01  8.50000000E-01  8.50000000E-01
  8.50000000E-01  8.50000000E-01  8.50000000E-01  8.50000000E-01  8.50000000E-01
  8.50000000E-01  8.50000000E-01  8.50000000E-01  8.50000000E-01  8.50000000E-01
  8.50000000E-01  8.50000000E-01  8.50000000E-01  8.50000000E-01  8.50000000E-01
  8.50000000E-01  8.50000000E-01  8.50000000E-01  8.50000000E-01  8.50000000E-01
  8.50000000E-01  8.50000000E-01  8.50000000E-01  8.50000000E-01  8.50000000E-01
  8.50000000E-01  8.50000000E-01  8.50000000E-01  8.50000000E-01  8.50000000E-01
  8.50000000E-01  8.50000000E-01  8.50000000E-01  8.50000000E-01  8.50000000E-01
  8.50000000E-01  8.50000000E-01  8.50000000E-01  8.50000000E-01  8.50000000E-01
  8.50000000E-01  8.50000000E-01  8.50000000E-01  8.50000000E-01  8.50000000E-01
  8.50000000E-01  8.50000000E-01  8.50000000E-01  8.50000000E-01  8.50000000E-01
  8.50000000E-01  8.50000000E-01  8.50000000E-01  8.50000000E-01  8.50000000E-01
  8.50000000E-01  8.50000000E-01  8.50000000E-01  8.50000000E-01  8.50000000E-01
  8.50000000E-01  8.50000000E-01  8.50000000E-01  8.50000000E-01  8.50000000E-01
  8.50000000E-01  8.50000000E-01  8.50000000E-01  8.50000000E-01  8.50000000E-01
  8.50000000E-01  8.50000000E-01  8.50000000E-01  8.50000000E-01  8.50000000E-01
  8.50000000E-01  8.50000000E-01  8.50000000E-01  8.50000000E-01  8.50000000E-01
  8.50000000E-01  8.50000000E-01  8.50000000E-01  8.50000000E-01  8.50000000E-01
  8.50000000E-01  8.50000000E-01  8.50000000E-01  8.50000000E-01  8.50000000E-01
  8.50000000E-01  8.50000000E-01  8.50000000E-01  8.50000000E-01  8.50000000E-01
  8.50000000E-01  8.50000000E-01  8.50000000E-01  8.50000000E-01  8.50000000E-01
  8.50000000E-01  8.50000000E-01  8.50000000E-01  8.50000000E-01  8.50000000E-01
  8.50000000E-01  8.50000000E-01  8.50000000E-01  8.50000000E-01  8.50000000E-01
  8.50000000E-01  8.50000000E-01  8.50000000E-01  8.50000000E-01  8.50000000E-01
  8.50000000E-01  8.50000000E-01  8.50000000E-01  8.50000000E-01  8.50000000E-01
  8.50000000E-01  8.50000000E-01  8.50000000E-01  8.50000000E-01  8.50000000E-01
  8.50000000E-01  8.50000000E-01  8.50000000E-01  8.50000000E-01  8.50000000E-01
  8.50000000E-01  8.50000000E-01  8.50000000E-01  8.50000000E-01  8.50000000E-01
  8.50000000E-01  8.50000000E-01  8.50000000E-01  8.50000000E-01  8.50000000E-01
  8.50000000E-01  8.50000000E-01  8.50000000E-01  8.50000000E-01  8.50000000E-01
  8.50000000E-01  8.50000000E-01  8.50000000E-01  8.50000000E-01  8.50000000E-01
  8.50000000E-01  8.50000000E-01  8.50000000E-01  8.50000000E-01  8.50000000E-01
  8.50000000E-01  8.50000000E-01  8.50000000E-01  8.50000000E-01  8.50000000E-01
  8.50000000E-01  8.50000000E-01  8.50000000E-01  8.50000000E-01  8.50000000E-01
  8.50000000E-01  8.50000000E-01  8.50000000E-01  8.50000000E-01  8.50000000E-01
  8.50000000E-01  8.50000000E-01  8.50000000E-01  8.50000000E-01  8.50000000E-01
  8.50000000E-01  8.50000000E-01  8.50000000E-01  8.50000000E-01  8.50000000E-01
  8.50000000E-01  8.50000000E-01  8.50000000E-01  8.50000000E-01  8.50000000E-01
  8.50000000E-01  8.50000000E-01  8.50000000E-01  8.50000000E-01  8.50000000E-01
  8.50000000E-01  8.50000000E-01  8.50000000E-01  8.50000000E-01  8.50000000E-01
  8.50000000E-01  8.50000000E-01  8.50000000E-01  8.50000000E-01  8.50000000E-01
  8.50000000E-01  8.50000000E-01  8.50000000E-01  8.50000000E-01  8.50000000E-01
  8.50000000E-01  8.50000000E-01  8.50000000E-01  8.50000000E-01  8.50000000E-01
  8.50000000E-01  8.50000000E-01  8.50000000E-01  8.50000000E-01  8.50000000E-01
  8.50000000E-01  8.50000000E-01  8.50000000E-01  8.50000000E-01  8.50000000E-01
  8.50000000E-01  8.50000000E-01  8.50000000E-01  8.50000000E-01  8.50000000E-01
  8.50000000E-01  8.50000000E-01  8.50000000E-01  8.50000000E-01  8.50000000E-01
  8.50000000E-01  8.50000000E-01  8.50000000E-01  8.50000000E-01  8.50000000E-01
  8.50000000E-01  8.50000000E-01  8.50000000E-01  8.50000000E-01  8.50000000E-01
  8.50000000E-01  8.50000000E-01  8.50000000E-01  8.50000000E-01  8.50000000E-01
  8.50000000E-01  8.50000000E-01  8.50000000E-01  8.50000000E-01  8.50000000E-01
  8.50000000E-01  8.50000000E-01  8.50000000E-01  8.50000000E-01  8.50000000E-01
  8.50000000E-01  8.50000000E-01  8.50000000E-01  8.50000000E-01  8.50000000E-01
  8.50000000E-01  8.50000000E-01  8.50000000E-01  8.50000000E-01  8.50000000E-01
  8.50000000E-01  8.50000000E-01  8.50000000E-01  8.50000000E-01  8.50000000E-01
  8.50000000E-01  8.50000000E-01  8.50000000E-01  8.50000000E-01  8.50000000E-01
  8.50000000E-01  8.50000000E-01  8.50000000E-01  8.50000000E-01  8.50000000E-01
  8.50000000E-01  8.50000000E-01  8.50000000E-01  8.50000000E-01  8.50000000E-01
  8.50000000E-01  8.50000000E-01  8.50000000E-01  8.50000000E-01  8.50000000E-01
  8.50000000E-01  8.50000000E-01  8.50000000E-01  8.50000000E-01  8.50000000E-01
  8.50000000E-01  8.50000000E-01  8.50000000E-01  8.50000000E-01  8.50000000E-01
  8.50000000E-01  8.50000000E-01  8.50000000E-01  8.50000000E-01  8.50000000E-01
  8.50000000E-01  8.50000000E-01  8.50000000E-01  8.50000000E-01  8.50000000E-01
  8.50000000E-01  8.50000000E-01  8.50000000E-01  8.50000000E-01  8.50000000E-01
  8.50000000E-01  8.50000000E-01  8.50000000E-01  8.50000000E-01  8.50000000E-01
  8.50000000E-01  8.50000000E-01  8.50000000E-01  8.50000000E-01  8.50000000E-01
  8.50000000E-01  8.50000000E-01  8.50000000E-01  8.50000000E-01  8.50000000E-01
  8.50000000E-01  8.50000000E-01  8.50000000E-01  8.50000000E-01  8.50000000E-01
  8.50000000E-01  8.50000000E-01  8.50000000E-01  8.50000000E-01  8.50000000E-01
  8.50000000E-01  8.50000000E-01  8.50000000E-01  8.50000000E-01  8.50000000E-01
  8.50000000E-01  8.50000000E-01  8.50000000E-01  8.50000000E-01  8.50000000E-01
  8.50000000E-01  8.50000000E-01  8.50000000E-01  8.50000000E-01  8.50000000E-01
  8.50000000E-01  8.50000000E-01  8.50000000E-01  8.50000000E-01  8.50000000E-01
  8.50000000E-01  8.50000000E-01  8.50000000E-01  8.50000000E-01  8.50000000E-01
  8.50000000E-01  8.50000000E-01  8.50000000E-01  8.50000000E-01  8.50000000E-01
  8.50000000E-01  8.50000000E-01  8.50000000E-01  8.50000000E-01  8.50000000E-01
  8.50000000E-01  8.50000000E-01  8.50000000E-01  8.50000000E-01  8.50000000E-01
  8.50000000E-01  8.50000000E-01  8.50000000E-01  8.50000000E-01  8.50000000E-01
  8.50000000E-01  8.50000000E-01  8.50000000E-01  8.50000000E-01  8.50000000E-01
  8.50000000E-01  8.50000000E-01  8.50000000E-01  8.50000000E-01  8.50000000E-01
  8.50000000E-01  8.50000000E-01  8.50000000E-01  8.50000000E-01  8.50000000E-01
  8.50000000E-01  8.50000000E-01  8.50000000E-01  8.50000000E-01  8.50000000E-01
  8.50000000E-01  8.50000000E-01  8.50000000E-01  8.50000000E-01  8.50000000E-01
  8.50000000E-01  8.50000000E-01  8.50000000E-01  8.50000000E-01  8.50000000E-01
  8.50000000E-01  8.50000000E-01  8.50000000E-01  8.50000000E-01  8.50000000E-01
  8.50000000E-01  8.50000000E-01  8.50000000E-01  8.50000000E-01  8.50000000E-01
  8.50000000E-01  8.50000000E-01  8.50000000E-01  8.50000000E-01  8.50000000E-01
  8.50000000E-01  8.50000000E-01  8.50000000E-01  8.50000000E-01  8.50000000E-01
  8.50000000E-01  8.50000000E-01  8.50000000E-01  8.50000000E-01  8.50000000E-01
  8.50000000E-01  8.50000000E-01  8.50000000E-01  8.50000000E-01  8.50000000E-01
  8.50000000E-01  8.50000000E-01  8.50000000E-01  8.50000000E-01  8.50000000E-01
  8.50000000E-01  8.50000000E-01  8.50000000E-01  8.50000000E-01  8.50000000E-01
  8.50000000E-01  8.50000000E-01  8.50000000E-01  8.50000000E-01  8.50000000E-01
  8.50000000E-01  8.50000000E-01  8.50000000E-01  8.50000000E-01  8.50000000E-01
  8.50000000E-01  8.50000000E-01  8.50000000E-01  8.50000000E-01  8.50000000E-01
  8.50000000E-01  8.50000000E-01  8.50000000E-01  8.50000000E-01  8.50000000E-01
  8.50000000E-01  8.50000000E-01  8.50000000E-01  8.50000000E-01  8.50000000E-01
  8.50000000E-01  8.50000000E-01  8.50000000E-01  8.50000000E-01  8.50000000E-01
  8.50000000E-01  8.50000000E-01  8.50000000E-01  8.50000000E-01  8.50000000E-01
  8.50000000E-01  8.50000000E-01  8.50000000E-01  8.50000000E-01  8.50000000E-01
  8.50000000E-01  8.50000000E-01  8.50000000E-01  8.50000000E-01  8.50000000E-01
  8.50000000E-01  8.50000000E-01  8.50000000E-01  8.50000000E-01  8.50000000E-01
  8.50000000E-01  8.50000000E-01  8.50000000E-01  8.50000000E-01  8.50000000E-01
  8.50000000E-01  8.50000000E-01  8.50000000E-01  8.50000000E-01  8.50000000E-01
  8.50000000E-01  8.50000000E-01  8.50000000E-01  8.50000000E-01  8.50000000E-01
  8.50000000E-01  8.50000000E-01  8.50000000E-01  8.50000000E-01  8.50000000E-01
  8.50000000E-01  8.50000000E-01  8.50000000E-01  8.50000000E-01  8.50000000E-01
  8.50000000E-01  8.50000000E-01  8.50000000E-01  8.50000000E-01  8.50000000E-01
  8.50000000E-01  8.50000000E-01  8.50000000E-01  8.50000000E-01  8.50000000E-01
  8.50000000E-01  8.50000000E-01  8.50000000E-01  8.50000000E-01  8.50000000E-01
  8.50000000E-01  8.50000000E-01  8.50000000E-01  8.50000000E-01  8.50000000E-01
  8.50000000E-01  8.50000000E-01  8.50000000E-01  8.50000000E-01  8.50000000E-01
  8.50000000E-01  8.50000000E-01  8.50000000E-01  8.50000000E-01  8.50000000E-01
  8.50000000E-01  8.50000000E-01  8.50000000E-01  8.50000000E-01  8.50000000E-01
  8.50000000E-01  8.50000000E-01  8.50000000E-01  8.50000000E-01  8.50000000E-01
  8.50000000E-01  8.50000000E-01  8.50000000E-01  8.50000000E-01  8.50000000E-01
  8.50000000E-01  8.50000000E-01  8.50000000E-01  8.50000000E-01  8.50000000E-01
  8.50000000E-01  8.50000000E-01  8.50000000E-01  8.50000000E-01  8.50000000E-01
  8.50000000E-01  8.50000000E-01  8.50000000E-01  8.50000000E-01  8.50000000E-01
  8.50000000E-01  8.50000000E-01  8.50000000E-01  8.50000000E-01  8.50000000E-01
  8.50000000E-01  8.50000000E-01  8.50000000E-01  8.50000000E-01  8.50000000E-01
  8.50000000E-01  8.50000000E-01  8.50000000E-01  8.50000000E-01  8.50000000E-01
  8.50000000E-01  8.50000000E-01  8.50000000E-01  8.50000000E-01  8.50000000E-01
  8.50000000E-01  8.50000000E-01  8.50000000E-01  8.50000000E-01  8.50000000E-01
  8.50000000E-01  8.50000000E-01  8.50000000E-01  8.50000000E-01  8.50000000E-01
  8.50000000E-01  8.50000000E-01  8.50000000E-01  8.50000000E-01  8.50000000E-01
  8.50000000E-01  8.50000000E-01  8.50000000E-01  8.50000000E-01  8.50000000E-01
  8.50000000E-01  8.50000000E-01  8.50000000E-01  8.50000000E-01  8.50000000E-01
  8.50000000E-01  8.50000000E-01  8.50000000E-01  8.50000000E-01  8.50000000E-01
  8.50000000E-01  8.50000000E-01  8.50000000E-01  8.50000000E-01  8.50000000E-01
  8.50000000E-01  8.50000000E-01  8.50000000E-01  8.50000000E-01  8.50000000E-01
  8.50000000E-01  8.50000000E-01  8.50000000E-01  8.50000000E-01  8.50000000E-01
  8.50000000E-01  8.50000000E-01  8.50000000E-01  8.50000000E-01  8.50000000E-01
  8.50000000E-01  8.50000000E-01  8.50000000E-01  8.50000000E-01  8.50000000E-01
  8.50000000E-01  8.50000000E-01  8.50000000E-01  8.50000000E-01  8.50000000E-01
  8.50000000E-01  8.50000000E-01  8.50000000E-01  8.50000000E-01  8.50000000E-01
  8.50000000E-01  8.50000000E-01  8.50000000E-01  8.50000000E-01  8.50000000E-01
  8.50000000E-01  8.50000000E-01  8.50000000E-01  8.50000000E-01  8.50000000E-01
  8.50000000E-01  8.50000000E-01  8.50000000E-01  8.50000000E-01  8.50000000E-01
  8.50000000E-01  8.50000000E-01  8.50000000E-01  8.50000000E-01  8.50000000E-01
  8.50000000E-01  8.50000000E-01  8.50000000E-01  8.50000000E-01  8.50000000E-01
  8.50000000E-01  8.50000000E-01  8.50000000E-01  8.50000000E-01  8.50000000E-01
  8.50000000E-01  8.50000000E-01  8.50000000E-01  8.50000000E-01  8.50000000E-01
  8.50000000E-01  8.50000000E-01  8.50000000E-01  8.50000000E-01  8.50000000E-01
  8.50000000E-01  8.50000000E-01  8.50000000E-01  8.50000000E-01  8.50000000E-01
  8.50000000E-01  8.50000000E-01  8.50000000E-01  8.50000000E-01  8.50000000E-01
  8.50000000E-01  8.50000000E-01  8.50000000E-01  8.50000000E-01  8.50000000E-01
  8.50000000E-01  8.50000000E-01  8.50000000E-01  8.50000000E-01  8.50000000E-01
  8.50000000E-01  8.50000000E-01  8.50000000E-01  8.50000000E-01  8.50000000E-01
  8.50000000E-01  8.50000000E-01  8.50000000E-01  8.50000000E-01  8.50000000E-01
  8.50000000E-01  8.50000000E-01  8.50000000E-01  8.50000000E-01  8.50000000E-01
  8.50000000E-01  8.50000000E-01  8.50000000E-01  8.50000000E-01  8.50000000E-01
  8.50000000E-01  8.50000000E-01  8.50000000E-01  8.50000000E-01  8.50000000E-01
  8.50000000E-01  8.50000000E-01  8.50000000E-01  8.50000000E-01  8.50000000E-01
  8.50000000E-01  8.50000000E-01  8.50000000E-01  8.50000000E-01  8.50000000E-01
  8.50000000E-01  8.50000000E-01  8.50000000E-01  8.50000000E-01  8.50000000E-01
  8.50000000E-01  8.50000000E-01  8.50000000E-01  8.50000000E-01  8.50000000E-01
  8.50000000E-01  8.50000000E-01  8.50000000E-01  8.50000000E-01  8.50000000E-01
  8.50000000E-01  8.50000000E-01  8.50000000E-01  8.50000000E-01  8.50000000E-01
  8.50000000E-01  8.50000000E-01  8.50000000E-01  8.50000000E-01  8.50000000E-01
  8.50000000E-01  8.50000000E-01  8.50000000E-01  8.50000000E-01  8.50000000E-01
  8.50000000E-01  8.50000000E-01  8.50000000E-01  8.50000000E-01  8.50000000E-01
  8.50000000E-01  8.50000000E-01  8.50000000E-01  8.50000000E-01  8.50000000E-01
  8.50000000E-01  8.50000000E-01  8.50000000E-01  8.50000000E-01  8.50000000E-01
  8.50000000E-01  8.50000000E-01  8.50000000E-01  8.50000000E-01  8.50000000E-01
  8.50000000E-01  8.50000000E-01  8.50000000E-01  8.50000000E-01  8.50000000E-01
  8.50000000E-01  8.50000000E-01  8.50000000E-01  8.50000000E-01  8.50000000E-01
  8.50000000E-01  8.50000000E-01  8.50000000E-01  8.50000000E-01  8.50000000E-01
  8.50000000E-01  8.50000000E-01  8.50000000E-01  8.50000000E-01  8.50000000E-01
  8.50000000E-01  8.50000000E-01  8.50000000E-01  8.50000000E-01  8.50000000E-01
  8.50000000E-01  8.50000000E-01  8.50000000E-01  8.50000000E-01  8.50000000E-01
  8.50000000E-01  8.50000000E-01  8.50000000E-01  8.50000000E-01  8.50000000E-01
  8.50000000E-01  8.50000000E-01  8.50000000E-01  8.50000000E-01  8.50000000E-01
  8.50000000E-01  8.50000000E-01  8.50000000E-01  8.50000000E-01  8.50000000E-01
  8.50000000E-01  8.50000000E-01  8.50000000E-01  8.50000000E-01  8.50000000E-01
  8.50000000E-01  8.50000000E-01  8.50000000E-01  8.50000000E-01  8.50000000E-01
  8.50000000E-01  8.50000000E-01  8.50000000E-01  8.50000000E-01  8.50000000E-01
  8.50000000E-01  8.50000000E-01  8.50000000E-01  8.50000000E-01  8.50000000E-01
  8.50000000E-01  8.50000000E-01  8.50000000E-01  8.50000000E-01  8.50000000E-01
  8.50000000E-01  8.50000000E-01  8.50000000E-01  8.50000000E-01  8.50000000E-01
  8.50000000E-01  8.50000000E-01  8.50000000E-01  8.50000000E-01  8.50000000E-01
  8.50000000E-01  8.50000000E-01  8.50000000E-01  8.50000000E-01  8.50000000E-01
  8.50000000E-01  8.50000000E-01  8.50000000E-01  8.50000000E-01  8.50000000E-01
  8.50000000E-01  8.50000000E-01  8.50000000E-01  8.50000000E-01  8.50000000E-01
  8.50000000E-01  8.50000000E-01  8.50000000E-01  8.50000000E-01  8.50000000E-01
  8.50000000E-01  8.50000000E-01  8.50000000E-01  8.50000000E-01  8.50000000E-01
  8.50000000E-01  8.50000000E-01  8.50000000E-01  8.50000000E-01  8.50000000E-01
  8.50000000E-01  8.50000000E-01  8.50000000E-01  8.50000000E-01  8.50000000E-01
  8.50000000E-01  8.50000000E-01  8.50000000E-01  8.50000000E-01  8.50000000E-01
  8.50000000E-01  8.50000000E-01  8.50000000E-01  8.50000000E-01  8.50000000E-01
  8.50000000E-01  8.50000000E-01  8.50000000E-01  8.50000000E-01  8.50000000E-01
  8.50000000E-01  8.50000000E-01  8.50000000E-01  8.50000000E-01  8.50000000E-01
  8.50000000E-01  8.50000000E-01  8.50000000E-01  8.50000000E-01  8.50000000E-01
  8.50000000E-01  8.50000000E-01  8.50000000E-01  8.50000000E-01  8.50000000E-01
  8.50000000E-01  8.50000000E-01  8.50000000E-01  8.50000000E-01  8.50000000E-01
  8.50000000E-01  8.50000000E-01  8.50000000E-01  8.50000000E-01  8.50000000E-01
  8.50000000E-01  8.50000000E-01  8.50000000E-01  8.50000000E-01  8.50000000E-01
  8.50000000E-01  8.50000000E-01  8.50000000E-01  8.50000000E-01  8.50000000E-01
  8.50000000E-01  8.50000000E-01  8.50000000E-01  8.50000000E-01  8.50000000E-01
  8.50000000E-01  8.50000000E-01  8.50000000E-01  8.50000000E-01  8.50000000E-01
  8.50000000E-01  8.50000000E-01  8.50000000E-01  8.50000000E-01  8.50000000E-01
  8.50000000E-01  8.50000000E-01  8.50000000E-01  8.50000000E-01  8.50000000E-01
  8.50000000E-01  8.50000000E-01  8.50000000E-01  8.50000000E-01  8.50000000E-01
  8.50000000E-01  8.50000000E-01  8.50000000E-01  8.50000000E-01  8.50000000E-01
  8.50000000E-01  8.50000000E-01  8.50000000E-01  8.50000000E-01  8.50000000E-01
  8.50000000E-01  8.50000000E-01  8.50000000E-01  8.50000000E-01  8.50000000E-01
  8.50000000E-01  8.50000000E-01  8.50000000E-01  8.50000000E-01  8.50000000E-01
  8.50000000E-01  8.50000000E-01  8.50000000E-01  8.50000000E-01  8.50000000E-01
  8.50000000E-01  8.50000000E-01  8.50000000E-01  8.50000000E-01  8.50000000E-01
  8.50000000E-01  8.50000000E-01  8.50000000E-01  8.50000000E-01  8.50000000E-01
  8.50000000E-01  8.50000000E-01  8.50000000E-01  8.50000000E-01  8.50000000E-01
  8.50000000E-01  8.50000000E-01  8.50000000E-01  8.50000000E-01  8.50000000E-01
  8.50000000E-01  8.50000000E-01  8.50000000E-01  8.50000000E-01  8.50000000E-01
  8.50000000E-01  8.50000000E-01  8.50000000E-01  8.50000000E-01  8.50000000E-01
  8.50000000E-01  8.50000000E-01  8.50000000E-01  8.50000000E-01  8.50000000E-01
  8.50000000E-01  8.50000000E-01  8.50000000E-01  8.50000000E-01  8.50000000E-01
  8.50000000E-01  8.50000000E-01  8.50000000E-01  8.50000000E-01  8.50000000E-01
  8.50000000E-01  8.50000000E-01  8.50000000E-01  8.50000000E-01  8.50000000E-01
  8.50000000E-01  8.50000000E-01  8.50000000E-01  8.50000000E-01  8.50000000E-01
  8.50000000E-01  8.50000000E-01  8.50000000E-01  8.50000000E-01  8.50000000E-01
  8.50000000E-01  8.50000000E-01  8.50000000E-01  8.50000000E-01  8.50000000E-01
  8.50000000E-01  8.50000000E-01  8.50000000E-01  8.50000000E-01  8.50000000E-01
  8.50000000E-01  8.50000000E-01  8.50000000E-01  8.50000000E-01  8.50000000E-01
  8.50000000E-01  8.50000000E-01  8.50000000E-01  8.50000000E-01  8.50000000E-01
  8.50000000E-01  8.50000000E-01  8.50000000E-01  8.50000000E-01  8.50000000E-01
  8.50000000E-01  8.50000000E-01  8.50000000E-01  8.50000000E-01  8.50000000E-01
  8.50000000E-01  8.50000000E-01  8.50000000E-01  8.50000000E-01  8.50000000E-01
  8.50000000E-01  8.50000000E-01  8.50000000E-01  8.50000000E-01  8.50000000E-01
  8.50000000E-01  8.50000000E-01  8.50000000E-01  8.50000000E-01  8.50000000E-01
  8.50000000E-01  8.50000000E-01  8.50000000E-01  8.50000000E-01  8.50000000E-01
  8.50000000E-01  8.50000000E-01  8.50000000E-01  8.50000000E-01  8.50000000E-01
  8.50000000E-01  8.50000000E-01  8.50000000E-01  8.50000000E-01  8.50000000E-01
  8.50000000E-01  8.50000000E-01  8.50000000E-01  8.50000000E-01  8.50000000E-01
  8.50000000E-01  8.50000000E-01  8.50000000E-01  8.50000000E-01  8.50000000E-01
  8.50000000E-01  8.50000000E-01  8.50000000E-01  8.50000000E-01  8.50000000E-01
  8.50000000E-01  8.50000000E-01  8.50000000E-01  8.50000000E-01  8.50000000E-01
  8.50000000E-01  8.50000000E-01  8.50000000E-01  8.50000000E-01  8.50000000E-01
  8.50000000E-01  8.50000000E-01  8.50000000E-01  8.50000000E-01  8.50000000E-01
  8.50000000E-01  8.50000000E-01  8.50000000E-01  8.50000000E-01  8.50000000E-01
  8.50000000E-01  8.50000000E-01  8.50000000E-01  8.50000000E-01  8.50000000E-01
  8.50000000E-01  8.50000000E-01  8.50000000E-01  8.50000000E-01  8.50000000E-01
  8.50000000E-01  8.50000000E-01  8.50000000E-01  8.50000000E-01  8.50000000E-01
  8.50000000E-01  8.50000000E-01  8.50000000E-01  8.50000000E-01  8.50000000E-01
  8.50000000E-01  8.50000000E-01  8.50000000E-01  8.50000000E-01  8.50000000E-01
  8.50000000E-01  8.50000000E-01  8.50000000E-01  8.50000000E-01  8.50000000E-01
  8.50000000E-01  8.50000000E-01  8.50000000E-01  8.50000000E-01  8.50000000E-01
  8.50000000E-01  8.50000000E-01  8.50000000E-01  8.50000000E-01  8.50000000E-01
  8.50000000E-01  8.50000000E-01  8.50000000E-01  8.50000000E-01  8.50000000E-01
  8.50000000E-01  8.50000000E-01  8.50000000E-01  8.50000000E-01  8.50000000E-01
  8.50000000E-01  8.50000000E-01  8.50000000E-01  8.50000000E-01  8.50000000E-01
  8.50000000E-01  8.50000000E-01  8.50000000E-01  8.50000000E-01  8.50000000E-01
  8.50000000E-01  8.50000000E-01  8.50000000E-01  8.50000000E-01  8.50000000E-01
  8.50000000E-01  8.50000000E-01  8.50000000E-01  8.50000000E-01  8.50000000E-01
  8.50000000E-01  8.50000000E-01  8.50000000E-01  8.50000000E-01  8.50000000E-01
  8.50000000E-01  8.50000000E-01  8.50000000E-01  8.50000000E-01  8.50000000E-01
  8.50000000E-01  8.50000000E-01  8.50000000E-01  8.50000000E-01  8.50000000E-01
  8.50000000E-01  8.50000000E-01  8.50000000E-01  8.50000000E-01  8.50000000E-01
  8.50000000E-01  8.50000000E-01  8.50000000E-01  8.50000000E-01  8.50000000E-01
  8.50000000E-01  8.50000000E-01  8.50000000E-01  8.50000000E-01  8.50000000E-01
  8.50000000E-01  8.50000000E-01  8.50000000E-01  8.50000000E-01  8.50000000E-01
  8.50000000E-01  8.50000000E-01  8.50000000E-01  8.50000000E-01  8.50000000E-01
  8.50000000E-01  8.50000000E-01  8.50000000E-01  8.50000000E-01  8.50000000E-01
  8.50000000E-01  8.50000000E-01  8.50000000E-01  8.50000000E-01  8.50000000E-01
  8.50000000E-01  8.50000000E-01  8.50000000E-01  8.50000000E-01  8.50000000E-01
  8.50000000E-01  8.50000000E-01  8.50000000E-01  8.50000000E-01  8.50000000E-01
  8.50000000E-01  8.50000000E-01  8.50000000E-01  8.50000000E-01  8.50000000E-01
  8.50000000E-01  8.50000000E-01  8.50000000E-01  8.50000000E-01  8.50000000E-01
  8.50000000E-01  8.50000000E-01  8.50000000E-01  8.50000000E-01  8.50000000E-01
  8.50000000E-01  8.50000000E-01  8.50000000E-01  8.50000000E-01  8.50000000E-01
  8.50000000E-01  8.50000000E-01  8.50000000E-01  8.50000000E-01  8.50000000E-01
  8.50000000E-01  8.50000000E-01  8.50000000E-01  8.50000000E-01  8.50000000E-01
  8.50000000E-01  8.50000000E-01  8.50000000E-01  8.50000000E-01  8.50000000E-01
  8.50000000E-01  8.50000000E-01  8.50000000E-01  8.50000000E-01  8.50000000E-01
  8.50000000E-01  8.50000000E-01  8.50000000E-01  8.50000000E-01  8.50000000E-01
  8.50000000E-01  8.50000000E-01  8.50000000E-01  8.50000000E-01  8.50000000E-01
  8.50000000E-01  8.50000000E-01  8.50000000E-01  8.50000000E-01  8.50000000E-01
  8.50000000E-01  8.50000000E-01  8.50000000E-01  8.50000000E-01  8.50000000E-01
  8.50000000E-01  8.50000000E-01  8.50000000E-01  8.50000000E-01  8.50000000E-01
  8.50000000E-01  8.50000000E-01  8.50000000E-01  8.50000000E-01  8.50000000E-01
  8.50000000E-01  8.50000000E-01  8.50000000E-01  8.50000000E-01  8.50000000E-01
  8.50000000E-01  8.50000000E-01  8.50000000E-01  8.50000000E-01  8.50000000E-01
  8.50000000E-01  8.50000000E-01  8.50000000E-01  8.50000000E-01  8.50000000E-01
  8.50000000E-01  8.50000000E-01  8.50000000E-01  8.50000000E-01  8.50000000E-01
  8.50000000E-01  8.50000000E-01  8.50000000E-01  8.50000000E-01  8.50000000E-01
  8.50000000E-01  8.50000000E-01  8.50000000E-01  8.50000000E-01  8.50000000E-01
  8.50000000E-01  8.50000000E-01  8.50000000E-01  8.50000000E-01  8.50000000E-01
  8.50000000E-01  8.50000000E-01  8.50000000E-01  8.50000000E-01  8.50000000E-01
  8.50000000E-01  8.50000000E-01  8.50000000E-01  8.50000000E-01  8.50000000E-01
  8.50000000E-01  8.50000000E-01  8.50000000E-01  8.50000000E-01  8.50000000E-01
  8.50000000E-01  8.50000000E-01  8.50000000E-01  8.50000000E-01  8.50000000E-01
  8.50000000E-01  8.50000000E-01  8.50000000E-01  8.50000000E-01  8.50000000E-01
  8.50000000E-01  8.50000000E-01  8.50000000E-01  8.50000000E-01  8.50000000E-01
  8.50000000E-01  8.50000000E-01  8.50000000E-01  8.50000000E-01  8.50000000E-01
  8.50000000E-01  8.50000000E-01  8.50000000E-01  8.50000000E-01  8.50000000E-01
  8.50000000E-01  8.50000000E-01  8.50000000E-01  8.50000000E-01  8.50000000E-01
  8.50000000E-01  8.50000000E-01  8.50000000E-01  8.50000000E-01  8.50000000E-01
  8.50000000E-01  8.50000000E-01  8.50000000E-01  8.50000000E-01  8.50000000E-01
  8.50000000E-01  8.50000000E-01  8.50000000E-01  8.50000000E-01  8.50000000E-01
  8.50000000E-01  8.50000000E-01  8.50000000E-01  8.50000000E-01  8.50000000E-01
  8.50000000E-01  8.50000000E-01  8.50000000E-01  8.50000000E-01  8.50000000E-01
  8.50000000E-01  8.50000000E-01  8.50000000E-01  8.50000000E-01  8.50000000E-01
  8.50000000E-01  8.50000000E-01  8.50000000E-01  8.50000000E-01  8.50000000E-01
  8.50000000E-01  8.50000000E-01  8.50000000E-01  8.50000000E-01  8.50000000E-01
  8.50000000E-01  8.50000000E-01  8.50000000E-01  8.50000000E-01  8.50000000E-01
  8.50000000E-01  8.50000000E-01  8.50000000E-01  8.50000000E-01  8.50000000E-01
  8.50000000E-01  8.50000000E-01  8.50000000E-01  8.50000000E-01  8.50000000E-01
  8.50000000E-01  8.50000000E-01  8.50000000E-01  8.50000000E-01  8.50000000E-01
  8.50000000E-01  8.50000000E-01  8.50000000E-01  8.50000000E-01  8.50000000E-01
  8.50000000E-01  8.50000000E-01  8.50000000E-01  8.50000000E-01  8.50000000E-01
  8.50000000E-01  8.50000000E-01  8.50000000E-01  8.50000000E-01  8.50000000E-01
  8.50000000E-01  8.50000000E-01  8.50000000E-01  8.50000000E-01  8.50000000E-01
  8.50000000E-01  8.50000000E-01  8.50000000E-01  8.50000000E-01  8.50000000E-01
  8.50000000E-01  8.50000000E-01  8.50000000E-01  8.50000000E-01  8.50000000E-01
  8.50000000E-01  8.50000000E-01  8.50000000E-01  8.50000000E-01  8.50000000E-01
  8.50000000E-01  8.50000000E-01  8.50000000E-01  8.50000000E-01  8.50000000E-01
  8.50000000E-01  8.50000000E-01  8.50000000E-01  8.50000000E-01  8.50000000E-01
  8.50000000E-01  8.50000000E-01  8.50000000E-01  8.50000000E-01  8.50000000E-01
  8.50000000E-01  8.50000000E-01  8.50000000E-01  8.50000000E-01  8.50000000E-01
  8.50000000E-01  8.50000000E-01  8.50000000E-01  8.50000000E-01  8.50000000E-01
  8.50000000E-01  8.50000000E-01  8.50000000E-01  8.50000000E-01  8.50000000E-01
  8.50000000E-01  8.50000000E-01  8.50000000E-01  8.50000000E-01  8.50000000E-01
  8.50000000E-01  8.50000000E-01  8.50000000E-01  8.50000000E-01  8.50000000E-01
  8.50000000E-01  8.50000000E-01  8.50000000E-01  8.50000000E-01  8.50000000E-01
  8.50000000E-01  8.50000000E-01  8.50000000E-01  8.50000000E-01  8.50000000E-01
  8.50000000E-01  8.50000000E-01  8.50000000E-01  8.50000000E-01  8.50000000E-01
  8.50000000E-01  8.50000000E-01  8.50000000E-01  8.50000000E-01  8.50000000E-01
  8.50000000E-01  8.50000000E-01  8.50000000E-01  8.50000000E-01  8.50000000E-01
  8.50000000E-01  8.50000000E-01  8.50000000E-01  8.50000000E-01  8.50000000E-01
  8.50000000E-01  8.50000000E-01  8.50000000E-01  8.50000000E-01  8.50000000E-01
  8.50000000E-01  8.50000000E-01  8.50000000E-01  8.50000000E-01  8.50000000E-01
  8.50000000E-01  8.50000000E-01  8.50000000E-01  8.50000000E-01  8.50000000E-01
  8.50000000E-01  8.50000000E-01  8.50000000E-01  8.50000000E-01  8.50000000E-01
  8.50000000E-01  8.50000000E-01  8.50000000E-01  8.50000000E-01  8.50000000E-01
  8.50000000E-01  8.50000000E-01  8.50000000E-01  8.50000000E-01  8.50000000E-01
  8.50000000E-01  8.50000000E-01  8.50000000E-01  8.50000000E-01  8.50000000E-01
  8.50000000E-01  8.50000000E-01  8.50000000E-01  8.50000000E-01  8.50000000E-01
  8.50000000E-01  8.50000000E-01  8.50000000E-01  8.50000000E-01  8.50000000E-01
  8.50000000E-01  8.50000000E-01  8.50000000E-01  8.50000000E-01  8.50000000E-01
  8.50000000E-01  8.50000000E-01  8.50000000E-01  8.50000000E-01  8.50000000E-01
  8.50000000E-01  8.50000000E-01  8.50000000E-01  8.50000000E-01  8.50000000E-01
  8.50000000E-01  8.50000000E-01  8.50000000E-01  8.50000000E-01  8.50000000E-01
  8.50000000E-01  8.50000000E-01  8.50000000E-01  8.50000000E-01  8.50000000E-01
  8.50000000E-01  8.50000000E-01  8.50000000E-01  8.50000000E-01  8.50000000E-01
  8.50000000E-01  8.50000000E-01  8.50000000E-01  8.50000000E-01  8.50000000E-01
  8.50000000E-01  8.50000000E-01  8.50000000E-01  8.50000000E-01  8.50000000E-01
  8.50000000E-01  8.50000000E-01  8.50000000E-01  8.50000000E-01  8.50000000E-01
  8.50000000E-01  8.50000000E-01  8.50000000E-01  8.50000000E-01  8.50000000E-01
  8.50000000E-01  8.50000000E-01  8.50000000E-01  8.50000000E-01  8.50000000E-01
  8.50000000E-01  8.50000000E-01  8.50000000E-01  8.50000000E-01  8.50000000E-01
  8.50000000E-01  8.50000000E-01  8.50000000E-01  8.50000000E-01  8.50000000E-01
  8.50000000E-01  8.50000000E-01  8.50000000E-01  8.50000000E-01  8.50000000E-01
  8.50000000E-01  8.50000000E-01  8.50000000E-01  8.50000000E-01  8.50000000E-01
  8.50000000E-01  8.50000000E-01  8.50000000E-01  8.50000000E-01  8.50000000E-01
  8.50000000E-01  8.50000000E-01  8.50000000E-01  8.50000000E-01  8.50000000E-01
  8.50000000E-01  8.50000000E-01  8.50000000E-01  8.50000000E-01  8.50000000E-01
  8.50000000E-01  8.50000000E-01  8.50000000E-01  8.50000000E-01  8.50000000E-01
  8.50000000E-01  8.50000000E-01  8.50000000E-01  8.50000000E-01  8.50000000E-01
  8.50000000E-01  8.50000000E-01  8.50000000E-01  8.50000000E-01  8.50000000E-01
  8.50000000E-01  8.50000000E-01  8.50000000E-01  8.50000000E-01  8.50000000E-01
  8.50000000E-01  8.50000000E-01  8.50000000E-01  8.50000000E-01  8.50000000E-01
  8.50000000E-01  8.50000000E-01  8.50000000E-01  8.50000000E-01  8.50000000E-01
  8.50000000E-01  8.50000000E-01  8.50000000E-01  8.50000000E-01  8.50000000E-01
  8.50000000E-01  8.50000000E-01  8.50000000E-01  8.50000000E-01  8.50000000E-01
  8.50000000E-01  8.50000000E-01  8.50000000E-01  8.50000000E-01  8.50000000E-01
  8.50000000E-01  8.50000000E-01  8.50000000E-01  8.50000000E-01  8.50000000E-01
  8.50000000E-01  8.50000000E-01  8.50000000E-01  8.50000000E-01  8.50000000E-01
  8.50000000E-01  8.50000000E-01  8.50000000E-01  8.50000000E-01  8.50000000E-01
  8.50000000E-01  8.50000000E-01  8.50000000E-01  8.50000000E-01  8.50000000E-01
  8.50000000E-01  8.50000000E-01  8.50000000E-01  8.50000000E-01  8.50000000E-01
  8.50000000E-01  8.50000000E-01  8.50000000E-01  8.50000000E-01  8.50000000E-01
  8.50000000E-01  8.50000000E-01  8.50000000E-01  8.50000000E-01  8.50000000E-01
  8.50000000E-01  8.50000000E-01  8.50000000E-01  8.50000000E-01  8.50000000E-01
  8.50000000E-01  8.50000000E-01  8.50000000E-01  8.50000000E-01  8.50000000E-01
  8.50000000E-01  8.50000000E-01  8.50000000E-01  8.50000000E-01  8.50000000E-01
  8.50000000E-01  8.50000000E-01  8.50000000E-01  8.50000000E-01  8.50000000E-01
  8.50000000E-01  8.50000000E-01  8.50000000E-01  8.50000000E-01  8.50000000E-01
  8.50000000E-01  8.50000000E-01  8.50000000E-01  8.50000000E-01  8.50000000E-01
  8.50000000E-01  8.50000000E-01  8.50000000E-01  8.50000000E-01  8.50000000E-01
  8.50000000E-01  8.50000000E-01  8.50000000E-01  8.50000000E-01  8.50000000E-01
  8.50000000E-01  8.50000000E-01  8.50000000E-01  8.50000000E-01  8.50000000E-01
  8.50000000E-01  8.50000000E-01  8.50000000E-01  8.50000000E-01  8.50000000E-01
  8.50000000E-01  8.50000000E-01  8.50000000E-01  8.50000000E-01  8.50000000E-01
  8.50000000E-01  8.50000000E-01  8.50000000E-01  8.50000000E-01  8.50000000E-01
  8.50000000E-01  8.50000000E-01  8.50000000E-01  8.50000000E-01  8.50000000E-01
  8.50000000E-01  8.50000000E-01  8.50000000E-01  8.50000000E-01  8.50000000E-01
  8.50000000E-01  8.50000000E-01  8.50000000E-01  8.50000000E-01  8.50000000E-01
  8.50000000E-01  8.50000000E-01  8.50000000E-01  8.50000000E-01  8.50000000E-01
  8.50000000E-01  8.50000000E-01  8.50000000E-01  8.50000000E-01  8.50000000E-01
  8.50000000E-01  8.50000000E-01  8.50000000E-01  8.50000000E-01  8.50000000E-01
  8.50000000E-01  8.50000000E-01  8.50000000E-01  8.50000000E-01  8.50000000E-01
  8.50000000E-01  8.50000000E-01  8.50000000E-01  8.50000000E-01  8.50000000E-01
  8.50000000E-01  8.50000000E-01  8.50000000E-01  8.50000000E-01  8.50000000E-01
  8.50000000E-01  8.50000000E-01  8.50000000E-01  8.50000000E-01  8.50000000E-01
  8.50000000E-01  8.50000000E-01  8.50000000E-01  8.50000000E-01  8.50000000E-01
  8.50000000E-01  8.50000000E-01  8.50000000E-01  8.50000000E-01  8.50000000E-01
  8.50000000E-01  8.50000000E-01  8.50000000E-01  8.50000000E-01  8.50000000E-01
  8.50000000E-01  8.50000000E-01  8.50000000E-01  8.50000000E-01  8.50000000E-01
  8.50000000E-01  8.50000000E-01  8.50000000E-01  8.50000000E-01  8.50000000E-01
  8.50000000E-01  8.50000000E-01  8.50000000E-01  8.50000000E-01  8.50000000E-01
  8.50000000E-01  8.50000000E-01  8.50000000E-01  8.50000000E-01  8.50000000E-01
  8.50000000E-01  8.50000000E-01  8.50000000E-01  8.50000000E-01  8.50000000E-01
  8.50000000E-01  8.50000000E-01  8.50000000E-01  8.50000000E-01  8.50000000E-01
  8.50000000E-01  8.50000000E-01  8.50000000E-01  8.50000000E-01  8.50000000E-01
  8.50000000E-01  8.50000000E-01  8.50000000E-01  8.50000000E-01  8.50000000E-01
  8.50000000E-01  8.50000000E-01  8.50000000E-01  8.50000000E-01  8.50000000E-01
  8.50000000E-01  8.50000000E-01  8.50000000E-01  8.50000000E-01  8.50000000E-01
  8.50000000E-01  8.50000000E-01  8.50000000E-01  8.50000000E-01  8.50000000E-01
  8.50000000E-01  8.50000000E-01  8.50000000E-01  8.50000000E-01  8.50000000E-01
  8.50000000E-01  8.50000000E-01  8.50000000E-01  8.50000000E-01  8.50000000E-01
  8.50000000E-01  8.50000000E-01  8.50000000E-01  8.50000000E-01  8.50000000E-01
  8.50000000E-01  8.50000000E-01  8.50000000E-01  8.50000000E-01  8.50000000E-01
  8.50000000E-01  8.50000000E-01  8.50000000E-01  8.50000000E-01  8.50000000E-01
  8.50000000E-01  8.50000000E-01  8.50000000E-01  8.50000000E-01  8.50000000E-01
  8.50000000E-01  8.50000000E-01  8.50000000E-01  8.50000000E-01  8.50000000E-01
  8.50000000E-01  8.50000000E-01  8.50000000E-01  8.50000000E-01  8.50000000E-01
  8.50000000E-01  8.50000000E-01  8.50000000E-01  8.50000000E-01  8.50000000E-01
  8.50000000E-01  8.50000000E-01  8.50000000E-01  8.50000000E-01  8.50000000E-01
  8.50000000E-01  8.50000000E-01  8.50000000E-01  8.50000000E-01  8.50000000E-01
  8.50000000E-01  8.50000000E-01  8.50000000E-01  8.50000000E-01  8.50000000E-01
  8.50000000E-01  8.50000000E-01  8.50000000E-01  8.50000000E-01  8.50000000E-01
  8.50000000E-01  8.50000000E-01  8.50000000E-01  8.50000000E-01  8.50000000E-01
  8.50000000E-01  8.50000000E-01  8.50000000E-01  8.50000000E-01  8.50000000E-01
  8.50000000E-01  8.50000000E-01  8.50000000E-01  8.50000000E-01  8.50000000E-01
  8.50000000E-01  8.50000000E-01  8.50000000E-01  8.50000000E-01  8.50000000E-01
  8.50000000E-01  8.50000000E-01  8.50000000E-01  8.50000000E-01  8.50000000E-01
  8.50000000E-01  8.50000000E-01  8.50000000E-01  8.50000000E-01  8.50000000E-01
  8.50000000E-01  8.50000000E-01  8.50000000E-01  8.50000000E-01  8.50000000E-01
  8.50000000E-01  8.50000000E-01  8.50000000E-01  8.50000000E-01  8.50000000E-01
  8.50000000E-01  8.50000000E-01  8.50000000E-01  8.50000000E-01  8.50000000E-01
  8.50000000E-01  8.50000000E-01  8.50000000E-01  8.50000000E-01  8.50000000E-01
  8.50000000E-01  8.50000000E-01  8.50000000E-01  8.50000000E-01  8.50000000E-01
  8.50000000E-01  8.50000000E-01  8.50000000E-01  8.50000000E-01  8.50000000E-01
  8.50000000E-01  8.50000000E-01  8.50000000E-01  8.50000000E-01  8.50000000E-01
  8.50000000E-01  8.50000000E-01  8.50000000E-01  8.50000000E-01  8.50000000E-01
  8.50000000E-01  8.50000000E-01  8.50000000E-01  8.50000000E-01  8.50000000E-01
  8.50000000E-01  8.50000000E-01  8.50000000E-01  8.50000000E-01  8.50000000E-01
  8.50000000E-01  8.50000000E-01  8.50000000E-01  8.50000000E-01  8.50000000E-01
  8.50000000E-01  8.50000000E-01  8.50000000E-01  8.50000000E-01  8.50000000E-01
  8.50000000E-01  8.50000000E-01  8.50000000E-01  8.50000000E-01  8.50000000E-01
  8.50000000E-01  8.50000000E-01  8.50000000E-01  8.50000000E-01  8.50000000E-01
  8.50000000E-01  8.50000000E-01  8.50000000E-01  8.50000000E-01  8.50000000E-01
  8.50000000E-01  8.50000000E-01  8.50000000E-01  8.50000000E-01  8.50000000E-01
  8.50000000E-01  8.50000000E-01  8.50000000E-01  8.50000000E-01  8.50000000E-01
  8.50000000E-01  8.50000000E-01  8.50000000E-01  8.50000000E-01  8.50000000E-01
  8.50000000E-01  8.50000000E-01  8.50000000E-01  8.50000000E-01  8.50000000E-01
  8.50000000E-01  8.50000000E-01  8.50000000E-01  8.50000000E-01  8.50000000E-01
  8.50000000E-01  8.50000000E-01  8.50000000E-01  8.50000000E-01  8.50000000E-01
  8.50000000E-01  8.50000000E-01  8.50000000E-01  8.50000000E-01  8.50000000E-01
  8.50000000E-01  8.50000000E-01  8.50000000E-01  8.50000000E-01  8.50000000E-01
  8.50000000E-01  8.50000000E-01  8.50000000E-01  8.50000000E-01  8.50000000E-01
  8.50000000E-01  8.50000000E-01  8.50000000E-01  8.50000000E-01  8.50000000E-01
  8.50000000E-01  8.50000000E-01  8.50000000E-01  8.50000000E-01  8.50000000E-01
  8.50000000E-01  8.50000000E-01  8.50000000E-01  8.50000000E-01  8.50000000E-01
  8.50000000E-01  8.50000000E-01  8.50000000E-01  8.50000000E-01  8.50000000E-01
  8.50000000E-01  8.50000000E-01  8.50000000E-01  8.50000000E-01  8.50000000E-01
  8.50000000E-01  8.50000000E-01  8.50000000E-01  8.50000000E-01  8.50000000E-01
  8.50000000E-01  8.50000000E-01  8.50000000E-01  8.50000000E-01  8.50000000E-01
  8.50000000E-01  8.50000000E-01  8.50000000E-01  8.50000000E-01  8.50000000E-01
  8.50000000E-01  8.50000000E-01  8.50000000E-01  8.50000000E-01  8.50000000E-01
  8.50000000E-01  8.50000000E-01  8.50000000E-01  8.50000000E-01  8.50000000E-01
  8.50000000E-01  8.50000000E-01  8.50000000E-01  8.50000000E-01  8.50000000E-01
  8.50000000E-01  8.50000000E-01  8.50000000E-01  8.50000000E-01  8.50000000E-01
  8.50000000E-01  8.50000000E-01  8.50000000E-01  8.50000000E-01  8.50000000E-01
  8.50000000E-01  8.50000000E-01  8.50000000E-01  8.50000000E-01  8.50000000E-01
  8.50000000E-01  8.50000000E-01  8.50000000E-01  8.50000000E-01  8.50000000E-01
  8.50000000E-01  8.50000000E-01  8.50000000E-01  8.50000000E-01  8.50000000E-01
  8.50000000E-01  8.50000000E-01  8.50000000E-01  8.50000000E-01  8.50000000E-01
  8.50000000E-01  8.50000000E-01  8.50000000E-01  8.50000000E-01  8.50000000E-01
  8.50000000E-01  8.50000000E-01  8.50000000E-01  8.50000000E-01  8.50000000E-01
  8.50000000E-01  8.50000000E-01  8.50000000E-01  8.50000000E-01  8.50000000E-01
  8.50000000E-01  8.50000000E-01  8.50000000E-01  8.50000000E-01  8.50000000E-01
  8.50000000E-01  8.50000000E-01  8.50000000E-01  8.50000000E-01  8.50000000E-01
  8.50000000E-01  8.50000000E-01  8.50000000E-01  8.50000000E-01  8.50000000E-01
  8.50000000E-01  8.50000000E-01  8.50000000E-01  8.50000000E-01  8.50000000E-01
  8.50000000E-01  8.50000000E-01  8.50000000E-01  8.50000000E-01  8.50000000E-01
  8.50000000E-01  8.50000000E-01  8.50000000E-01  8.50000000E-01  8.50000000E-01
  8.50000000E-01  8.50000000E-01  8.50000000E-01  8.50000000E-01  8.50000000E-01
  8.50000000E-01  8.50000000E-01  8.50000000E-01  8.50000000E-01  8.50000000E-01
  8.50000000E-01  8.50000000E-01  8.50000000E-01  8.50000000E-01  8.50000000E-01
  8.50000000E-01  8.50000000E-01  8.50000000E-01  8.50000000E-01  8.50000000E-01
  8.50000000E-01  8.50000000E-01  8.50000000E-01  8.50000000E-01  8.50000000E-01
  8.50000000E-01  8.50000000E-01  8.50000000E-01  8.50000000E-01  8.50000000E-01
  8.50000000E-01  8.50000000E-01  8.50000000E-01  8.50000000E-01  8.50000000E-01
  8.50000000E-01  8.50000000E-01  8.50000000E-01  8.50000000E-01  8.50000000E-01
  8.50000000E-01  8.50000000E-01  8.50000000E-01  8.50000000E-01  8.50000000E-01
  8.50000000E-01  8.50000000E-01  8.50000000E-01  8.50000000E-01  8.50000000E-01
  8.50000000E-01  8.50000000E-01  8.50000000E-01  8.50000000E-01  8.50000000E-01
  8.50000000E-01  8.50000000E-01  8.50000000E-01  8.50000000E-01  8.50000000E-01
  8.50000000E-01  8.50000000E-01  8.50000000E-01  8.50000000E-01  8.50000000E-01
  8.50000000E-01  8.50000000E-01  8.50000000E-01  8.50000000E-01  8.50000000E-01
  8.50000000E-01  8.50000000E-01  8.50000000E-01  8.50000000E-01  8.50000000E-01
  8.50000000E-01  8.50000000E-01  8.50000000E-01  8.50000000E-01  8.50000000E-01
  8.50000000E-01  8.50000000E-01  8.50000000E-01  8.50000000E-01  8.50000000E-01
  8.50000000E-01  8.50000000E-01  8.50000000E-01  8.50000000E-01  8.50000000E-01
  8.50000000E-01  8.50000000E-01  8.50000000E-01  8.50000000E-01  8.50000000E-01
  8.50000000E-01  8.50000000E-01  8.50000000E-01  8.50000000E-01  8.50000000E-01
  8.50000000E-01  8.50000000E-01  8.50000000E-01  8.50000000E-01  8.50000000E-01
  8.50000000E-01  8.50000000E-01  8.50000000E-01  8.50000000E-01  8.50000000E-01
  8.50000000E-01  8.50000000E-01  8.50000000E-01  8.50000000E-01  8.50000000E-01
  8.50000000E-01  8.50000000E-01  8.50000000E-01  8.50000000E-01  8.50000000E-01
  8.50000000E-01  8.50000000E-01  8.50000000E-01  8.50000000E-01  8.50000000E-01
  8.50000000E-01  8.50000000E-01  8.50000000E-01  8.50000000E-01  8.50000000E-01
  8.50000000E-01  8.50000000E-01  8.50000000E-01  8.50000000E-01  8.50000000E-01
  8.50000000E-01  8.50000000E-01  8.50000000E-01  8.50000000E-01  8.50000000E-01
  8.50000000E-01  8.50000000E-01  8.50000000E-01  8.50000000E-01  8.50000000E-01
  8.50000000E-01  8.50000000E-01  8.50000000E-01  8.50000000E-01  8.50000000E-01
  8.50000000E-01  8.50000000E-01  8.50000000E-01  8.50000000E-01  8.50000000E-01
  8.50000000E-01  8.50000000E-01  8.50000000E-01  8.50000000E-01  8.50000000E-01
  8.50000000E-01  8.50000000E-01  8.50000000E-01  8.50000000E-01  8.50000000E-01
  8.50000000E-01  8.50000000E-01  8.50000000E-01  8.50000000E-01  8.50000000E-01
  8.50000000E-01  8.50000000E-01  8.50000000E-01  8.50000000E-01  8.50000000E-01
  8.50000000E-01  8.50000000E-01  8.50000000E-01  8.50000000E-01  8.50000000E-01
  8.50000000E-01  8.50000000E-01  8.50000000E-01  8.50000000E-01  8.50000000E-01
  8.50000000E-01  8.50000000E-01  8.50000000E-01  8.50000000E-01  8.50000000E-01
  8.50000000E-01  8.50000000E-01  8.50000000E-01  8.50000000E-01  8.50000000E-01
  8.50000000E-01  8.50000000E-01  8.50000000E-01  8.50000000E-01  8.50000000E-01
  8.50000000E-01  8.50000000E-01  8.50000000E-01  8.50000000E-01  8.50000000E-01
  8.50000000E-01  8.50000000E-01  8.50000000E-01  8.50000000E-01  8.50000000E-01
  8.50000000E-01  8.50000000E-01  8.50000000E-01  8.50000000E-01  8.50000000E-01
  8.50000000E-01  8.50000000E-01  8.50000000E-01  8.50000000E-01  8.50000000E-01
  8.50000000E-01  8.50000000E-01  8.50000000E-01  8.50000000E-01  8.50000000E-01
  8.50000000E-01  8.50000000E-01  8.50000000E-01  8.50000000E-01  8.50000000E-01
  8.50000000E-01  8.50000000E-01  8.50000000E-01  8.50000000E-01  8.50000000E-01
  8.50000000E-01  8.50000000E-01  8.50000000E-01  8.50000000E-01  8.50000000E-01
  8.50000000E-01  8.50000000E-01  8.50000000E-01  8.50000000E-01  8.50000000E-01
  8.50000000E-01  8.50000000E-01  8.50000000E-01  8.50000000E-01  8.50000000E-01
  8.50000000E-01  8.50000000E-01  8.50000000E-01  8.50000000E-01  8.50000000E-01
  8.50000000E-01  8.50000000E-01  8.50000000E-01  8.50000000E-01  8.50000000E-01
  8.50000000E-01  8.50000000E-01  8.50000000E-01  8.50000000E-01  8.50000000E-01
  8.50000000E-01  8.50000000E-01  8.50000000E-01  8.50000000E-01  8.50000000E-01
  8.50000000E-01  8.50000000E-01  8.50000000E-01  8.50000000E-01  8.50000000E-01
  8.50000000E-01  8.50000000E-01  8.50000000E-01  8.50000000E-01  8.50000000E-01
  8.50000000E-01  8.50000000E-01  8.50000000E-01  8.50000000E-01  8.50000000E-01
  8.50000000E-01  8.50000000E-01  8.50000000E-01  8.50000000E-01  8.50000000E-01
  8.50000000E-01  8.50000000E-01  8.50000000E-01  8.50000000E-01  8.50000000E-01
  8.50000000E-01  8.50000000E-01  8.50000000E-01  8.50000000E-01  8.50000000E-01
  8.50000000E-01  8.50000000E-01  8.50000000E-01  8.50000000E-01  8.50000000E-01
  8.50000000E-01  8.50000000E-01  8.50000000E-01  8.50000000E-01  8.50000000E-01
  8.50000000E-01  8.50000000E-01  8.50000000E-01  8.50000000E-01  8.50000000E-01
  8.50000000E-01  8.50000000E-01  8.50000000E-01  8.50000000E-01  8.50000000E-01
  8.50000000E-01  8.50000000E-01  8.50000000E-01  8.50000000E-01  8.50000000E-01
  8.50000000E-01  8.50000000E-01  8.50000000E-01  8.50000000E-01  8.50000000E-01
  8.50000000E-01  8.50000000E-01  8.50000000E-01  8.50000000E-01  8.50000000E-01
  8.50000000E-01  8.50000000E-01  8.50000000E-01  8.50000000E-01  8.50000000E-01
  8.50000000E-01  8.50000000E-01  8.50000000E-01  8.50000000E-01  8.50000000E-01
  8.50000000E-01  8.50000000E-01  8.50000000E-01  8.50000000E-01  8.50000000E-01
  8.50000000E-01  8.50000000E-01  8.50000000E-01  8.50000000E-01  8.50000000E-01
  8.50000000E-01  8.50000000E-01  8.50000000E-01  8.50000000E-01  8.50000000E-01
  8.50000000E-01  8.50000000E-01  8.50000000E-01  8.50000000E-01  8.50000000E-01
  8.50000000E-01  8.50000000E-01  8.50000000E-01  8.50000000E-01  8.50000000E-01
  8.50000000E-01  8.50000000E-01  8.50000000E-01  8.50000000E-01  8.50000000E-01
  8.50000000E-01  8.50000000E-01  8.50000000E-01  8.50000000E-01  8.50000000E-01
  8.50000000E-01  8.50000000E-01  8.50000000E-01  8.50000000E-01  8.50000000E-01
  8.50000000E-01  8.50000000E-01  8.50000000E-01  8.50000000E-01  8.50000000E-01
  8.50000000E-01  8.50000000E-01  8.50000000E-01  8.50000000E-01  8.50000000E-01
  8.50000000E-01  8.50000000E-01  8.50000000E-01  8.50000000E-01  8.50000000E-01
  8.50000000E-01  8.50000000E-01  8.50000000E-01  8.50000000E-01  8.50000000E-01
  8.50000000E-01  8.50000000E-01  8.50000000E-01  8.50000000E-01  8.50000000E-01
  8.50000000E-01  8.50000000E-01  8.50000000E-01  8.50000000E-01  8.50000000E-01
  8.50000000E-01  8.50000000E-01  8.50000000E-01  8.50000000E-01  8.50000000E-01
  8.50000000E-01  8.50000000E-01  8.50000000E-01  8.50000000E-01  8.50000000E-01
  8.50000000E-01  8.50000000E-01  8.50000000E-01  8.50000000E-01  8.50000000E-01
  8.50000000E-01  8.50000000E-01  8.50000000E-01  8.50000000E-01  8.50000000E-01
  8.50000000E-01  8.50000000E-01  8.50000000E-01  8.50000000E-01  8.50000000E-01
  8.50000000E-01  8.50000000E-01  8.50000000E-01  8.50000000E-01  8.50000000E-01
  8.50000000E-01  8.50000000E-01  8.50000000E-01  8.50000000E-01  8.50000000E-01
  8.50000000E-01  8.50000000E-01  8.50000000E-01  8.50000000E-01  8.50000000E-01
  8.50000000E-01  8.50000000E-01  8.50000000E-01  8.50000000E-01  8.50000000E-01
  8.50000000E-01  8.50000000E-01  8.50000000E-01  8.50000000E-01  8.50000000E-01
  8.50000000E-01  8.50000000E-01  8.50000000E-01  8.50000000E-01  8.50000000E-01
  8.50000000E-01  8.50000000E-01  8.50000000E-01  8.50000000E-01  8.50000000E-01
  8.50000000E-01  8.50000000E-01  8.50000000E-01  8.50000000E-01  8.50000000E-01
  8.50000000E-01  8.50000000E-01  8.50000000E-01  8.50000000E-01  8.50000000E-01
  8.50000000E-01  8.50000000E-01  8.50000000E-01  8.50000000E-01  8.50000000E-01
  8.50000000E-01  8.50000000E-01  8.50000000E-01  8.50000000E-01  8.50000000E-01
  8.50000000E-01  8.50000000E-01  8.50000000E-01  8.50000000E-01  8.50000000E-01
  8.50000000E-01  8.50000000E-01  8.50000000E-01  8.50000000E-01  8.50000000E-01
  8.50000000E-01  8.50000000E-01  8.50000000E-01  8.50000000E-01  8.50000000E-01
  8.50000000E-01  8.50000000E-01  8.50000000E-01  8.50000000E-01  8.50000000E-01
  8.50000000E-01  8.50000000E-01  8.50000000E-01  8.50000000E-01  8.50000000E-01
  8.50000000E-01  8.50000000E-01  8.50000000E-01  8.50000000E-01  8.50000000E-01
  8.50000000E-01  8.50000000E-01  8.50000000E-01  8.50000000E-01  8.50000000E-01
  8.50000000E-01  8.50000000E-01  8.50000000E-01  8.50000000E-01  8.50000000E-01
  8.50000000E-01  8.50000000E-01  8.50000000E-01  8.50000000E-01  8.50000000E-01
  8.50000000E-01  8.50000000E-01  8.50000000E-01  8.50000000E-01  8.50000000E-01
  8.50000000E-01  8.50000000E-01  8.50000000E-01  8.50000000E-01  8.50000000E-01
  8.50000000E-01  8.50000000E-01  8.50000000E-01  8.50000000E-01  8.50000000E-01
  8.50000000E-01  8.50000000E-01  8.50000000E-01  8.50000000E-01  8.50000000E-01
  8.50000000E-01  8.50000000E-01  8.50000000E-01  8.50000000E-01  8.50000000E-01
  8.50000000E-01  8.50000000E-01  8.50000000E-01  8.50000000E-01  8.50000000E-01
  8.50000000E-01  8.50000000E-01  8.50000000E-01  8.50000000E-01  8.50000000E-01
  8.50000000E-01  8.50000000E-01  8.50000000E-01  8.50000000E-01  8.50000000E-01
  8.50000000E-01  8.50000000E-01  8.50000000E-01  8.50000000E-01  8.50000000E-01
  8.50000000E-01  8.50000000E-01  8.50000000E-01  8.50000000E-01  8.50000000E-01
  8.50000000E-01  8.50000000E-01  8.50000000E-01  8.50000000E-01  8.50000000E-01
  8.50000000E-01  8.50000000E-01  8.50000000E-01  8.50000000E-01  8.50000000E-01
  8.50000000E-01  8.50000000E-01  8.50000000E-01  8.50000000E-01  8.50000000E-01
  8.50000000E-01  8.50000000E-01  8.50000000E-01  8.50000000E-01  8.50000000E-01
  8.50000000E-01  8.50000000E-01  8.50000000E-01  8.50000000E-01  8.50000000E-01
  8.50000000E-01  8.50000000E-01  8.50000000E-01  8.50000000E-01  8.50000000E-01
  8.50000000E-01  8.50000000E-01  8.50000000E-01  8.50000000E-01  8.50000000E-01
  8.50000000E-01  8.50000000E-01  8.50000000E-01  8.50000000E-01  8.50000000E-01
  8.50000000E-01  8.50000000E-01  8.50000000E-01  8.50000000E-01  8.50000000E-01
  8.50000000E-01  8.50000000E-01  8.50000000E-01  8.50000000E-01  8.50000000E-01
  8.50000000E-01  8.50000000E-01  8.50000000E-01  8.50000000E-01  8.50000000E-01
  8.50000000E-01  8.50000000E-01  8.50000000E-01  8.50000000E-01  8.50000000E-01
  8.50000000E-01  8.50000000E-01  8.50000000E-01  8.50000000E-01  8.50000000E-01
  8.50000000E-01  8.50000000E-01  8.50000000E-01  8.50000000E-01  8.50000000E-01
  8.50000000E-01  8.50000000E-01  8.50000000E-01  8.50000000E-01  8.50000000E-01
  8.50000000E-01  8.50000000E-01  8.50000000E-01  8.50000000E-01  8.50000000E-01
  8.50000000E-01  8.50000000E-01  8.50000000E-01  8.50000000E-01  8.50000000E-01
  8.50000000E-01  8.50000000E-01  8.50000000E-01  8.50000000E-01  8.50000000E-01
  8.50000000E-01  8.50000000E-01  8.50000000E-01  8.50000000E-01  8.50000000E-01
  8.50000000E-01  8.50000000E-01  8.50000000E-01  8.50000000E-01  8.50000000E-01
  8.50000000E-01  8.50000000E-01  8.50000000E-01  8.50000000E-01  8.50000000E-01
  8.50000000E-01  8.50000000E-01  8.50000000E-01  8.50000000E-01  8.50000000E-01
  8.50000000E-01  8.50000000E-01  8.50000000E-01  8.50000000E-01  8.50000000E-01
  8.50000000E-01  8.50000000E-01  8.50000000E-01  8.50000000E-01  8.50000000E-01
  8.50000000E-01  8.50000000E-01  8.50000000E-01  8.50000000E-01  8.50000000E-01
  8.50000000E-01  8.50000000E-01  8.50000000E-01  8.50000000E-01  8.50000000E-01
  8.50000000E-01  8.50000000E-01  8.50000000E-01  8.50000000E-01  8.50000000E-01
  8.50000000E-01  8.50000000E-01  8.50000000E-01  8.50000000E-01  8.50000000E-01
  8.50000000E-01  8.50000000E-01  8.50000000E-01  8.50000000E-01  8.50000000E-01
  8.50000000E-01  8.50000000E-01  8.50000000E-01  8.50000000E-01  8.50000000E-01
  8.50000000E-01  8.50000000E-01  8.50000000E-01  8.50000000E-01  8.50000000E-01
  8.50000000E-01  8.50000000E-01  8.50000000E-01  8.50000000E-01  8.50000000E-01
  8.50000000E-01  8.50000000E-01  8.50000000E-01  8.50000000E-01  8.50000000E-01
  8.50000000E-01  8.50000000E-01  8.50000000E-01  8.50000000E-01  8.50000000E-01
  8.50000000E-01  8.50000000E-01  8.50000000E-01  8.50000000E-01  8.50000000E-01
  8.50000000E-01  8.50000000E-01  8.50000000E-01  8.50000000E-01  8.50000000E-01
  8.50000000E-01  8.50000000E-01  8.50000000E-01  8.50000000E-01  8.50000000E-01
  8.50000000E-01  8.50000000E-01  8.50000000E-01  8.50000000E-01  8.50000000E-01
  8.50000000E-01  8.50000000E-01  8.50000000E-01  8.50000000E-01  8.50000000E-01
  8.50000000E-01  8.50000000E-01  8.50000000E-01  8.50000000E-01  8.50000000E-01
  8.50000000E-01  8.50000000E-01  8.50000000E-01  8.50000000E-01  8.50000000E-01
  8.50000000E-01  8.50000000E-01  8.50000000E-01  8.50000000E-01  8.50000000E-01
  8.50000000E-01  8.50000000E-01  8.50000000E-01  8.50000000E-01  8.50000000E-01
  8.50000000E-01  8.50000000E-01  8.50000000E-01  8.50000000E-01  8.50000000E-01
  8.50000000E-01  8.50000000E-01  8.50000000E-01  8.50000000E-01  8.50000000E-01
  8.50000000E-01  8.50000000E-01  8.50000000E-01  8.50000000E-01  8.50000000E-01
  8.50000000E-01  8.50000000E-01  8.50000000E-01  8.50000000E-01  8.50000000E-01
  8.50000000E-01  8.50000000E-01  8.50000000E-01  8.50000000E-01  8.50000000E-01
  8.50000000E-01  8.50000000E-01  8.50000000E-01  8.50000000E-01  8.50000000E-01
  8.50000000E-01  8.50000000E-01  8.50000000E-01  8.50000000E-01  8.50000000E-01
  8.50000000E-01  8.50000000E-01  8.50000000E-01  8.50000000E-01  8.50000000E-01
  8.50000000E-01  8.50000000E-01  8.50000000E-01  8.50000000E-01  8.50000000E-01
  8.50000000E-01  8.50000000E-01  8.50000000E-01  8.50000000E-01  8.50000000E-01
  8.50000000E-01  8.50000000E-01  8.50000000E-01  8.50000000E-01  8.50000000E-01
  8.50000000E-01  8.50000000E-01  8.50000000E-01  8.50000000E-01  8.50000000E-01
  8.50000000E-01  8.50000000E-01  8.50000000E-01  8.50000000E-01  8.50000000E-01
  8.50000000E-01  8.50000000E-01  8.50000000E-01  8.50000000E-01  8.50000000E-01
  8.50000000E-01  8.50000000E-01  8.50000000E-01  8.50000000E-01  8.50000000E-01
  8.50000000E-01  8.50000000E-01  8.50000000E-01  8.50000000E-01  8.50000000E-01
  8.50000000E-01  8.50000000E-01  8.50000000E-01  8.50000000E-01  8.50000000E-01
  8.50000000E-01  8.50000000E-01  8.50000000E-01  8.50000000E-01  8.50000000E-01
  8.50000000E-01  8.50000000E-01  8.50000000E-01  8.50000000E-01  8.50000000E-01
  8.50000000E-01  8.50000000E-01  8.50000000E-01  8.50000000E-01  8.50000000E-01
  8.50000000E-01  8.50000000E-01  8.50000000E-01  8.50000000E-01  8.50000000E-01
  8.50000000E-01  8.50000000E-01  8.50000000E-01  8.50000000E-01  8.50000000E-01
  8.50000000E-01  8.50000000E-01  8.50000000E-01  8.50000000E-01  8.50000000E-01
  8.50000000E-01  8.50000000E-01  8.50000000E-01  8.50000000E-01  8.50000000E-01
  8.50000000E-01  8.50000000E-01  8.50000000E-01  8.50000000E-01  8.50000000E-01
  8.50000000E-01  8.50000000E-01  8.50000000E-01  8.50000000E-01  8.50000000E-01
  8.50000000E-01  8.50000000E-01  8.50000000E-01  8.50000000E-01  8.50000000E-01
  8.50000000E-01  8.50000000E-01  8.50000000E-01  8.50000000E-01  8.50000000E-01
  8.50000000E-01  8.50000000E-01  8.50000000E-01  8.50000000E-01  8.50000000E-01
  8.50000000E-01  8.50000000E-01  8.50000000E-01  8.50000000E-01  8.50000000E-01
  8.50000000E-01  8.50000000E-01  8.50000000E-01  8.50000000E-01  8.50000000E-01
  8.50000000E-01  8.50000000E-01  8.50000000E-01  8.50000000E-01  8.50000000E-01
  8.50000000E-01  8.50000000E-01  8.50000000E-01  8.50000000E-01  8.50000000E-01
  8.50000000E-01  8.50000000E-01  8.50000000E-01  8.50000000E-01  8.50000000E-01
  8.50000000E-01  8.50000000E-01  8.50000000E-01  8.50000000E-01  8.50000000E-01
  8.50000000E-01  8.50000000E-01  8.50000000E-01  8.50000000E-01  8.50000000E-01
  8.50000000E-01  8.50000000E-01  8.50000000E-01  8.50000000E-01  8.50000000E-01
  8.50000000E-01  8.50000000E-01  8.50000000E-01  8.50000000E-01  8.50000000E-01
  8.50000000E-01  8.50000000E-01  8.50000000E-01  8.50000000E-01  8.50000000E-01
  8.50000000E-01  8.50000000E-01  8.50000000E-01  8.50000000E-01  8.50000000E-01
  8.50000000E-01  8.50000000E-01  8.50000000E-01  8.50000000E-01  8.50000000E-01
  8.50000000E-01  8.50000000E-01  8.50000000E-01  8.50000000E-01  8.50000000E-01
  8.50000000E-01  8.50000000E-01  8.50000000E-01  8.50000000E-01  8.50000000E-01
  8.50000000E-01  8.50000000E-01  8.50000000E-01  8.50000000E-01  8.50000000E-01
  8.50000000E-01  8.50000000E-01  8.50000000E-01  8.50000000E-01  8.50000000E-01
  8.50000000E-01  8.50000000E-01  8.50000000E-01  8.50000000E-01  8.50000000E-01
  8.50000000E-01  8.50000000E-01  8.50000000E-01  8.50000000E-01  8.50000000E-01
  8.50000000E-01  8.50000000E-01  8.50000000E-01  8.50000000E-01  8.50000000E-01
  8.50000000E-01  8.50000000E-01  8.50000000E-01  8.50000000E-01  8.50000000E-01
  8.50000000E-01  8.50000000E-01  8.50000000E-01  8.50000000E-01  8.50000000E-01
  8.50000000E-01  8.50000000E-01  8.50000000E-01  8.50000000E-01  8.50000000E-01
  8.50000000E-01  8.50000000E-01  8.50000000E-01  8.50000000E-01  8.50000000E-01
  8.50000000E-01  8.50000000E-01  8.50000000E-01  8.50000000E-01  8.50000000E-01
  8.50000000E-01  8.50000000E-01  8.50000000E-01  8.50000000E-01  8.50000000E-01
  8.50000000E-01  8.50000000E-01  8.50000000E-01  8.50000000E-01  8.50000000E-01
  8.50000000E-01  8.50000000E-01  8.50000000E-01  8.50000000E-01  8.50000000E-01
  8.50000000E-01  8.50000000E-01  8.50000000E-01  8.50000000E-01  8.50000000E-01
  8.50000000E-01  8.50000000E-01  8.50000000E-01  8.50000000E-01  8.50000000E-01
  8.50000000E-01  8.50000000E-01  8.50000000E-01  8.50000000E-01  8.50000000E-01
  8.50000000E-01  8.50000000E-01  8.50000000E-01  8.50000000E-01  8.50000000E-01
  8.50000000E-01  8.50000000E-01  8.50000000E-01  8.50000000E-01  8.50000000E-01
  8.50000000E-01  8.50000000E-01  8.50000000E-01  8.50000000E-01  8.50000000E-01
  8.50000000E-01  8.50000000E-01  8.50000000E-01  8.50000000E-01  8.50000000E-01
  8.50000000E-01  8.50000000E-01  8.50000000E-01  8.50000000E-01  8.50000000E-01
  8.50000000E-01  8.50000000E-01  8.50000000E-01  8.50000000E-01  8.50000000E-01
  8.50000000E-01  8.50000000E-01  8.50000000E-01  8.50000000E-01  8.50000000E-01
  8.50000000E-01  8.50000000E-01  8.50000000E-01  8.50000000E-01  8.50000000E-01
  8.50000000E-01  8.50000000E-01  8.50000000E-01  8.50000000E-01  8.50000000E-01
  8.50000000E-01  8.50000000E-01  8.50000000E-01  8.50000000E-01  8.50000000E-01
  8.50000000E-01  8.50000000E-01  8.50000000E-01  8.50000000E-01  8.50000000E-01
  8.50000000E-01  8.50000000E-01  8.50000000E-01  8.50000000E-01  8.50000000E-01
  8.50000000E-01  8.50000000E-01  8.50000000E-01  8.50000000E-01  8.50000000E-01
  8.50000000E-01  8.50000000E-01  8.50000000E-01  8.50000000E-01  8.50000000E-01
  8.50000000E-01  8.50000000E-01  8.50000000E-01  8.50000000E-01  8.50000000E-01
  8.50000000E-01  8.50000000E-01  8.50000000E-01  8.50000000E-01  8.50000000E-01
  8.50000000E-01  8.50000000E-01  8.50000000E-01
%FLAG IPOL                                                                      
%FORMAT(1I8)                                                                    
       0
